
     Program PWSCF v.7.5 starts on 18Jun2026 at  9:15:31 

     This program is part of the open-source Quantum ESPRESSO suite
     for quantum simulation of materials; please cite
         "P. Giannozzi et al., J. Phys.:Condens. Matter 21 395502 (2009);
         "P. Giannozzi et al., J. Phys.:Condens. Matter 29 465901 (2017);
         "P. Giannozzi et al., J. Chem. Phys. 152 154105 (2020);
          URL http://www.quantum-espresso.org", 
     in publications or presentations arising from this work. More details at
     http://www.quantum-espresso.org/quote

     Parallel version (MPI & OpenMP), running on     128 processor cores
     Number of MPI processes:               128
     Threads/MPI process:                     1

     MPI processes distributed on     1 nodes
     503227 MiB available memory on the printing compute node when the environment starts

     Reading input from vc_relax_HS.in

     Current dimensions of program PWSCF are:
     Max number of different atomic species (ntypx) = 10
     Max number of k-points (npk) =  40000
     Max angular momentum in pseudopotentials (lmaxx) =  4
     file C.pbe-n-kjpaw_psl.1.0.0.UPF: wavefunction(s)  2S 2P renormalized
     file Fe.pbe-spn-kjpaw_psl.0.2.1.UPF: wavefunction(s)  3D renormalized
     file O.pbe-n-kjpaw_psl.0.1.UPF: wavefunction(s)  2P renormalized
     Message from routine setup:
     using ibrav=0 with symmetry is DISCOURAGED, use correct ibrav instead

     K-points division:     npool     =       2
     R & G space division:  proc/nbgrp/npool/nimage =      64
     Subspace diagonalization in iterative solution of the eigenvalue problem:
     one sub-group per band group will be used
     custom distributed-memory algorithm (size of sub-group:  2*  2 procs)


     Parallelization info
     --------------------
     sticks:   dense  smooth     PW     G-vecs:    dense   smooth      PW
     Min         496     165     43                71135    13687    1870
     Max         497     166     44                71140    13692    1878
     Sum       31761   10583   2807              4552753   876069  119965

     Using Slab Decomposition



     bravais-lattice index     =            0
     lattice parameter (alat)  =      23.6164  a.u.
     unit-cell volume          =    7595.7281 (a.u.)^3
     number of atoms/cell      =          106
     number of atomic types    =            5
     number of electrons       =       388.00 (up: 198.00, down: 190.00)
     number of Kohn-Sham states=          198
     kinetic-energy cutoff     =      90.0000  Ry
     charge density cutoff     =    1080.0000  Ry
     scf convergence threshold =      1.0E-08
     mixing beta               =       0.3000
     number of iterations used =            8  plain     mixing
     energy convergence thresh.=      1.1E-05
     force convergence thresh. =      1.0E-04
     press convergence thresh. =      1.0E-02
     Exchange-correlation= SLA  PW   PBX  PBC
                           (   1   4   3   4   0   0   0)
     nstep                     =          200

     Hubbard projectors: atomic
     Hubbard parameters of DFT+U (Dudarev formulation) in eV:
     U(Fe-3d) =  2.3500

     Internal variables: lda_plus_u =T, lda_plus_u_kind = 0

     Internal variables: orbital_resolved =F, hub_pot_fix =F, apply_U = F

     celldm(1)=  23.616373  celldm(2)=   0.000000  celldm(3)=   0.000000
     celldm(4)=   0.000000  celldm(5)=   0.000000  celldm(6)=   0.000000

     crystal axes: (cart. coord. in units of alat)
               a(1) = (   0.935179  -0.354117  -0.006498 )  
               a(2) = (   0.935179   0.354117  -0.006498 )  
               a(3) = (  -0.400467   0.000000   0.873462 )  

     reciprocal axes: (cart. coord. in units 2 pi/alat)
               b(1) = (  0.536366 -1.411962  0.245914 )  
               b(2) = (  0.536366  1.411962  0.245914 )  
               b(3) = (  0.007981  0.000000  1.148528 )  


     PseudoPot. # 1 for C  read from file:
     ../../pseudo/C.pbe-n-kjpaw_psl.1.0.0.UPF
     MD5 check sum: 5d2aebdfa2cae82b50a7e79e9516da0f
     Pseudo is Projector augmented-wave + core cor, Zval =  4.0
     Generated using "atomic" code by A. Dal Corso  v.5.1
     Shape of augmentation charge: PSQ
     Using radial grid of 1073 points,  4 beta functions with: 
                l(1) =   0
                l(2) =   0
                l(3) =   1
                l(4) =   1
     Q(r) pseudized with 0 coefficients 


     PseudoPot. # 2 for Fe read from file:
     ../../pseudo/Fe.pbe-spn-kjpaw_psl.0.2.1.UPF
     MD5 check sum: e86618425769142926afa95317d90200
     Pseudo is Projector augmented-wave + core cor, Zval = 16.0
     Generated using "atomic" code by A. Dal Corso  v.5.0.99 svn rev. 10869
     Shape of augmentation charge: PSQ
     Using radial grid of 1191 points,  6 beta functions with: 
                l(1) =   0
                l(2) =   0
                l(3) =   1
                l(4) =   1
                l(5) =   2
                l(6) =   2
     Q(r) pseudized with 0 coefficients 


     PseudoPot. # 3 for H  read from file:
     ../../pseudo/H_ONCV_PBE-1.0.oncvpsp.upf
     MD5 check sum: 1790becc920ee074925cf490c71280fe
     Pseudo is Norm-conserving, Zval =  1.0
     Generated using ONCVPSP code by D. R. Hamann
     Using radial grid of 1166 points,  2 beta functions with: 
                l(1) =   0
                l(2) =   0

     PseudoPot. # 4 for N  read from file:
     ../../pseudo/N.oncvpsp.upf
     MD5 check sum: 563d65bfb082928f0c9eb97172f6c357
     Pseudo is Norm-conserving + core correction, Zval =  5.0
     Generated using ONCVPSP code by D. R. Hamann
     Using radial grid of 1058 points,  4 beta functions with: 
                l(1) =   0
                l(2) =   0
                l(3) =   1
                l(4) =   1

     PseudoPot. # 5 for O  read from file:
     ../../pseudo/O.pbe-n-kjpaw_psl.0.1.UPF
     MD5 check sum: 0234752ac141de4415c5fc33072bef88
     Pseudo is Projector augmented-wave + core cor, Zval =  6.0
     Generated using "atomic" code by A. Dal Corso  v.5.0.99 svn rev. 10869
     Shape of augmentation charge: BESSEL
     Using radial grid of 1095 points,  4 beta functions with: 
                l(1) =   0
                l(2) =   0
                l(3) =   1
                l(4) =   1
     Q(r) pseudized with 0 coefficients 


     atomic species   valence    mass     pseudopotential
     C                 4.00    12.01070     C ( 1.00)
     Fe               16.00    55.84500     Fe( 1.00)
     H                 1.00     1.00794     H ( 1.00)
     N                 5.00    14.00670     N ( 1.00)
     O                 6.00    15.99940     O ( 1.00)

     Starting magnetic structure 
     atomic species   magnetization
     C               0.000
     Fe              0.250
     H               0.000
     N               0.000
     O               0.000

      4 Sym. Ops., with inversion, found ( 2 have fractional translation)


                                    s                        frac. trans.

      isym =  1     identity                                     

 cryst.   s( 1) = (     1          0          0      )
                  (     0          1          0      )
                  (     0          0          1      )

 cart.    s( 1) = (  1.0000000  0.0000000 -0.0000000 )
                  (  0.0000000  1.0000000 -0.0000000 )
                  (  0.0000000  0.0000000  1.0000000 )


      isym =  2     180 deg rotation - cart. axis [0,1,0]        

 cryst.   s( 2) = (     0         -1          0      )    f =(  0.0000000 )
                  (    -1          0          0      )       ( -0.0000000 )
                  (     0          0         -1      )       (  0.5000000 )

 cart.    s( 2) = ( -1.0000000  0.0000000  0.0000000 )    f =( -0.2002335 )
                  ( -0.0000000  1.0000000  0.0000000 )       ( -0.0000000 )
                  ( -0.0000000 -0.0000000 -1.0000000 )       (  0.4367312 )


      isym =  3     inversion                                    

 cryst.   s( 3) = (    -1          0          0      )
                  (     0         -1          0      )
                  (     0          0         -1      )

 cart.    s( 3) = ( -1.0000000 -0.0000000  0.0000000 )
                  ( -0.0000000 -1.0000000  0.0000000 )
                  ( -0.0000000 -0.0000000 -1.0000000 )


      isym =  4     inv. 180 deg rotation - cart. axis [0,1,0]   

 cryst.   s( 4) = (     0          1          0      )    f =(  0.0000000 )
                  (     1          0          0      )       ( -0.0000000 )
                  (     0          0          1      )       (  0.5000000 )

 cart.    s( 4) = (  1.0000000 -0.0000000 -0.0000000 )    f =( -0.2002335 )
                  (  0.0000000 -1.0000000 -0.0000000 )       ( -0.0000000 )
                  (  0.0000000  0.0000000  1.0000000 )       (  0.4367312 )


   Cartesian axes

     site n.     atom                  positions (alat units)
         1        C      tau(   1) = (   0.5149851  -0.2029030   0.5039978  )
         2        C      tau(   2) = (   0.7546714  -0.2029030   0.7931996  )
         3        C      tau(   3) = (   0.9549049   0.2029030   0.3564684  )
         4        C      tau(   4) = (   0.7152186   0.2029030   0.0672666  )
         5        H      tau(   5) = (   0.4461374  -0.1851680   0.5546113  )
         6        H      tau(   6) = (   0.8235191  -0.1851680   0.7425861  )
         7        H      tau(   7) = (   1.0237526   0.1851680   0.3058549  )
         8        H      tau(   8) = (   0.6463709   0.1851680   0.1178801  )
         9        C      tau(   9) = (   1.4408426   0.0778636   0.4135260  )
        10        C      tau(  10) = (   0.2292809   0.0778636   0.0102090  )
        11        C      tau(  11) = (   0.0290474  -0.0778636   0.4469402  )
        12        C      tau(  12) = (   1.2406091  -0.0778636   0.8502572  )
        13        H      tau(  13) = (   1.3637609   0.0396871   0.3996351  )
        14        H      tau(  14) = (   0.3063626   0.0396871   0.0241000  )
        15        H      tau(  15) = (   0.1061291  -0.0396871   0.4608312  )
        16        H      tau(  16) = (   1.1635274  -0.0396871   0.8363662  )
        17        C      tau(  17) = (   1.5299463   0.0567134   0.3497420  )
        18        C      tau(  18) = (   0.1401772   0.0567134   0.0739930  )
        19        C      tau(  19) = (  -0.0600563  -0.0567134   0.5107242  )
        20        C      tau(  20) = (   1.3297128  -0.0567134   0.7864732  )
        21        H      tau(  21) = (   1.5245158   0.0000240   0.2837512  )
        22        H      tau(  22) = (   0.1456077   0.0000240   0.1399839  )
        23        H      tau(  23) = (  -0.0546258  -0.0000240   0.5767150  )
        24        H      tau(  24) = (   1.3242823  -0.0000240   0.7204823  )
        25        C      tau(  25) = (   0.6903257  -0.2445436   0.3786279  )
        26        C      tau(  26) = (   0.9797978  -0.2445436   0.0451071  )
        27        C      tau(  27) = (   0.7795643   0.2445436   0.4818383  )
        28        C      tau(  28) = (   0.4900922   0.2445436   0.8153591  )
        29        H      tau(  29) = (   0.7619551  -0.2568569   0.3305333  )
        30        H      tau(  30) = (   0.9081684  -0.2568569   0.0932017  )
        31        H      tau(  31) = (   0.7079349   0.2568569   0.5299329  )
        32        H      tau(  32) = (   0.5617216   0.2568569   0.7672645  )
        33        C      tau(  33) = (   0.6940728  -0.1726695   0.4644311  )
        34        C      tau(  34) = (   0.5755837  -0.1726695   0.8327662  )
        35        C      tau(  35) = (   0.7758172   0.1726695   0.3960351  )
        36        C      tau(  36) = (   0.8943063   0.1726695   0.0277000  )
        37        C      tau(  37) = (   0.7906004  -0.1140151   0.4910749  )
        38        C      tau(  38) = (   0.4790561  -0.1140151   0.8061225  )
        39        C      tau(  39) = (   0.6792896   0.1140151   0.3693913  )
        40        C      tau(  40) = (   0.9908339   0.1140151   0.0543437  )
        41        H      tau(  41) = (   0.8629534  -0.1278864   0.4436635  )
        42        H      tau(  42) = (   0.4067031  -0.1278864   0.8535339  )
        43        H      tau(  43) = (   0.6069366   0.1278864   0.4168027  )
        44        H      tau(  44) = (   1.0631869   0.1278864   0.0069323  )
        45        C      tau(  45) = (   0.8662826   0.0200597   0.6056940  )
        46        C      tau(  46) = (   0.4033739   0.0200597   0.6915034  )
        47        C      tau(  47) = (   0.6036074  -0.0200597   0.2547723  )
        48        C      tau(  48) = (   1.0665161  -0.0200597   0.1689628  )
        49        C      tau(  49) = (   0.8328492   0.0882568   0.6932757  )
        50        C      tau(  50) = (   0.4368073   0.0882568   0.6039217  )
        51        C      tau(  51) = (   0.6370408  -0.0882568   0.1671905  )
        52        C      tau(  52) = (   1.0330828  -0.0882568   0.2565445  )
        53        C      tau(  53) = (   0.9119013   0.1552052   0.7407652  )
        54        C      tau(  54) = (   0.3577552   0.1552052   0.5564322  )
        55        C      tau(  55) = (   0.5579887  -0.1552052   0.1197010  )
        56        C      tau(  56) = (   1.1121348  -0.1552052   0.3040340  )
        57        H      tau(  57) = (   0.8882335   0.2083437   0.8055567  )
        58        H      tau(  58) = (   0.3814230   0.2083437   0.4916407  )
        59        H      tau(  59) = (   0.5816565  -0.2083437   0.0549095  )
        60        H      tau(  60) = (   1.0884671  -0.2083437   0.3688255  )
        61        C      tau(  61) = (   1.0158822   0.1543769   0.7046093  )
        62        C      tau(  62) = (   0.2537743   0.1543769   0.5925881  )
        63        C      tau(  63) = (   0.4540078  -0.1543769   0.1558569  )
        64        C      tau(  64) = (   1.2161157  -0.1543769   0.2678782  )
        65        H      tau(  65) = (   0.1404831  -0.1480731   0.7472524  )
        66        H      tau(  66) = (   1.1291734  -0.1480731   0.5499449  )
        67        H      tau(  67) = (   1.3294069   0.1480731   0.1132138  )
        68        H      tau(  68) = (   0.3407166   0.1480731   0.3105213  )
        69        C      tau(  69) = (   1.0450522   0.0891258   0.6173268  )
        70        C      tau(  70) = (   0.2246043   0.0891258   0.6798706  )
        71        C      tau(  71) = (   0.4248378  -0.0891258   0.2431394  )
        72        C      tau(  72) = (   1.2452857  -0.0891258   0.1805956  )
        73        C      tau(  73) = (   0.9703415   0.0230851   0.5667996  )
        74        C      tau(  74) = (   0.2993150   0.0230851   0.7303978  )
        75        C      tau(  75) = (   0.4995485  -0.0230851   0.2936666  )
        76        C      tau(  76) = (   1.1705750  -0.0230851   0.1300684  )
        77        H      tau(  77) = (   0.9946343  -0.0245680   0.4981578  )
        78        H      tau(  78) = (   0.2750222  -0.0245680   0.7990396  )
        79        H      tau(  79) = (   0.4752557   0.0245680   0.3623084  )
        80        H      tau(  80) = (   1.1948678   0.0245680   0.0614266  )
        81        N      tau(  81) = (   0.6067025  -0.1522195   0.5262955  )
        82        N      tau(  82) = (   0.6629540  -0.1522195   0.7709019  )
        83        N      tau(  83) = (   0.8631875   0.1522195   0.3341707  )
        84        N      tau(  84) = (   0.8069361   0.1522195   0.0895643  )
        85        N      tau(  85) = (   0.7841921  -0.0444919   0.5679223  )
        86        N      tau(  86) = (   0.4854644  -0.0444919   0.7292751  )
        87        N      tau(  87) = (   0.6856979   0.0444919   0.2925439  )
        88        N      tau(  88) = (   0.9844257   0.0444919   0.1311911  )
        89        N      tau(  89) = (   1.1531974   0.0914893   0.5789940  )
        90        N      tau(  90) = (   0.1164591   0.0914893   0.7182034  )
        91        N      tau(  91) = (   0.3166926  -0.0914893   0.2814722  )
        92        N      tau(  92) = (   1.3534309  -0.0914893   0.1422628  )
        93        O      tau(  93) = (   0.7344102   0.0876342   0.7250473  )
        94        O      tau(  94) = (   0.5352463   0.0876342   0.5721501  )
        95        O      tau(  95) = (   0.7354798  -0.0876342   0.1354189  )
        96        O      tau(  96) = (   0.9346437  -0.0876342   0.2883162  )
        97        O      tau(  97) = (   0.2874121  -0.2157262   0.6413663  )
        98        O      tau(  98) = (   0.9822444  -0.2157262   0.6558311  )
        99        O      tau(  99) = (   1.1824779   0.2157262   0.2190999  )
       100        O      tau( 100) = (   0.4876456   0.2157262   0.2046351  )
       101        O      tau( 101) = (   1.1750501   0.0464800   0.4922273  )
       102        O      tau( 102) = (   0.0946064   0.0464800   0.8049700  )
       103        O      tau( 103) = (   0.2948399  -0.0464800   0.3682389  )
       104        O      tau( 104) = (   1.3752836  -0.0464800   0.0554962  )
       105        Fe     tau( 105) = (   0.6348283  -0.0272909   0.6485987  )
       106        Fe     tau( 106) = (   0.8350618   0.0272909   0.2118675  )

     --------------------------------------------
     DFT-D3 Dispersion Correction (3-body terms):
     --------------------------------------------
       Reference C6 values for interpolation: 

         atom   Coordination number   C6
         H          0.912             6.05
         H          0.000            15.18
         C          0.000            98.23
         C          0.987            86.49
         C          1.998            58.72
         C          2.999            51.56
         C          3.984            36.41
         N          0.000            50.54
         N          0.994            44.25
         N          2.014            39.35
         N          2.990            31.16
         O          0.000            31.01
         O          0.993            25.63
         O          1.989            20.74
         Fe         0.000           982.67
         Fe         1.648           409.99
         Fe         9.138           219.01

       Values used:

         atom   Coordination number  R0_AB[au]  C6      C8
         C          3.199            2.750     50.07   1447.97
         C          3.199            2.750     50.07   1447.97
         C          3.199            2.750     50.07   1447.97
         C          3.199            2.750     50.07   1447.97
         H          1.007            2.062      6.18     74.65
         H          1.007            2.062      6.18     74.65
         H          1.007            2.062      6.18     74.65
         H          1.007            2.062      6.18     74.65
         C          3.138            2.750     50.62   1464.13
         C          3.138            2.750     50.62   1464.13
         C          3.138            2.750     50.62   1464.13
         C          3.138            2.750     50.62   1464.13
         H          1.005            2.062      6.18     74.66
         H          1.005            2.062      6.18     74.66
         H          1.005            2.062      6.18     74.66
         H          1.005            2.062      6.18     74.66
         C          3.147            2.750     50.55   1462.11
         C          3.147            2.750     50.55   1462.11
         C          3.147            2.750     50.55   1462.11
         C          3.147            2.750     50.55   1462.11
         H          1.006            2.062      6.18     74.66
         H          1.006            2.062      6.18     74.66
         H          1.006            2.062      6.18     74.66
         H          1.006            2.062      6.18     74.66
         C          3.176            2.750     50.30   1454.76
         C          3.176            2.750     50.30   1454.76
         C          3.176            2.750     50.30   1454.76
         C          3.176            2.750     50.30   1454.76
         H          1.006            2.062      6.18     74.66
         H          1.006            2.062      6.18     74.66
         H          1.006            2.062      6.18     74.66
         H          1.006            2.062      6.18     74.66
         C          3.285            2.750     48.84   1412.53
         C          3.285            2.750     48.84   1412.53
         C          3.285            2.750     48.84   1412.53
         C          3.285            2.750     48.84   1412.53
         C          3.210            2.750     49.94   1444.44
         C          3.210            2.750     49.94   1444.44
         C          3.210            2.750     49.94   1444.44
         C          3.210            2.750     49.94   1444.44
         H          1.006            2.062      6.18     74.66
         H          1.006            2.062      6.18     74.66
         H          1.006            2.062      6.18     74.66
         H          1.006            2.062      6.18     74.66
         C          3.267            2.750     49.15   1421.50
         C          3.267            2.750     49.15   1421.50
         C          3.267            2.750     49.15   1421.50
         C          3.267            2.750     49.15   1421.50
         C          3.229            2.750     49.71   1437.73
         C          3.229            2.750     49.71   1437.73
         C          3.229            2.750     49.71   1437.73
         C          3.229            2.750     49.71   1437.73
         C          3.153            2.750     50.51   1460.72
         C          3.153            2.750     50.51   1460.72
         C          3.153            2.750     50.51   1460.72
         C          3.153            2.750     50.51   1460.72
         H          1.006            2.062      6.18     74.66
         H          1.006            2.062      6.18     74.66
         H          1.006            2.062      6.18     74.66
         H          1.006            2.062      6.18     74.66
         C          3.165            2.750     50.40   1457.73
         C          3.165            2.750     50.40   1457.73
         C          3.165            2.750     50.40   1457.73
         C          3.165            2.750     50.40   1457.73
         H          1.007            2.062      6.17     74.64
         H          1.007            2.062      6.17     74.64
         H          1.007            2.062      6.17     74.64
         H          1.007            2.062      6.17     74.64
         C          3.223            2.750     49.79   1439.99
         C          3.223            2.750     49.79   1439.99
         C          3.223            2.750     49.79   1439.99
         C          3.223            2.750     49.79   1439.99
         C          3.192            2.750     50.15   1450.35
         C          3.192            2.750     50.15   1450.35
         C          3.192            2.750     50.15   1450.35
         C          3.192            2.750     50.15   1450.35
         H          1.007            2.062      6.17     74.64
         H          1.007            2.062      6.17     74.64
         H          1.007            2.062      6.17     74.64
         H          1.007            2.062      6.17     74.64
         N          2.878            2.478     31.55    696.03
         N          2.878            2.478     31.55    696.03
         N          2.878            2.478     31.55    696.03
         N          2.878            2.478     31.55    696.03
         N          3.001            2.478     31.32    690.85
         N          3.001            2.478     31.32    690.85
         N          3.001            2.478     31.32    690.85
         N          3.001            2.478     31.32    690.85
         N          3.078            2.478     31.25    689.35
         N          3.078            2.478     31.25    689.35
         N          3.078            2.478     31.25    689.35
         N          3.078            2.478     31.25    689.35
         O          1.748            2.345     21.26    429.05
         O          1.748            2.345     21.26    429.05
         O          1.748            2.345     21.26    429.05
         O          1.748            2.345     21.26    429.05
         O          1.076            2.345     25.50    514.54
         O          1.076            2.345     25.50    514.54
         O          1.076            2.345     25.50    514.54
         O          1.076            2.345     25.50    514.54
         O          1.073            2.345     25.50    514.64
         O          1.073            2.345     25.50    514.64
         O          1.073            2.345     25.50    514.64
         O          1.073            2.345     25.50    514.64
         Fe         4.788            3.252    409.98  38353.44
         Fe         4.788            3.252    409.98  38353.44

         Molecular C6 ( Ry / a.u.^6 ) =    339498.07


   Crystallographic axes

     site n.     atom                  positions (cryst. coord.)
         1        C      tau(   1) = (  0.6866522  0.1136694  0.5829654  )
         2        C      tau(   2) = (  0.8863306  0.3133478  0.9170346  )
         3        C      tau(   3) = (  0.3133478  0.8863306  0.4170346  )
         4        C      tau(   4) = (  0.1136694  0.6866522  0.0829654  )
         5        H      tau(   5) = (  0.6371301  0.1142295  0.6405470  )
         6        H      tau(   6) = (  0.8857705  0.3628699  0.8594530  )
         7        H      tau(   7) = (  0.3628699  0.8857705  0.3594530  )
         8        H      tau(   8) = (  0.1142295  0.6371301  0.1405470  )
         9        C      tau(   9) = (  0.7645705  0.9844515  0.4864449  )
        10        C      tau(  10) = (  0.0155485  0.2354295  0.0135551  )
        11        C      tau(  11) = (  0.2354295  0.0155485  0.5135551  )
        12        C      tau(  12) = (  0.9844515  0.7645705  0.9864449  )
        13        H      tau(  13) = (  0.7737143  0.8857877  0.4698756  )
        14        H      tau(  14) = (  0.1142123  0.2262857  0.0301244  )
        15        H      tau(  15) = (  0.2262857  0.1142123  0.5301244  )
        16        H      tau(  16) = (  0.8857877  0.7737143  0.9698756  )
        17        C      tau(  17) = (  0.8265406  0.9866950  0.4138983  )
        18        C      tau(  18) = (  0.0133050  0.1734594  0.0861017  )
        19        C      tau(  19) = (  0.1734594  0.0133050  0.5861017  )
        20        C      tau(  20) = (  0.9866950  0.8265406  0.9138983  )
        21        H      tau(  21) = (  0.8874431  0.8875108  0.3380626  )
        22        H      tau(  22) = (  0.1124892  0.1125569  0.1619374  )
        23        H      tau(  23) = (  0.1125569  0.1124892  0.6619374  )
        24        H      tau(  24) = (  0.8875108  0.8874431  0.8380626  )
        25        C      tau(  25) = (  0.8086636  0.1180909  0.4403739  )
        26        C      tau(  26) = (  0.8819091  0.1913364  0.0596261  )
        27        C      tau(  27) = (  0.1913364  0.8819091  0.5596261  )
        28        C      tau(  28) = (  0.1180909  0.8086636  0.9403739  )
        29        H      tau(  29) = (  0.8526420  0.1272974  0.3857075  )
        30        H      tau(  30) = (  0.8727026  0.1473580  0.1142925  )
        31        H      tau(  31) = (  0.1473580  0.8727026  0.6142925  )
        32        H      tau(  32) = (  0.1272974  0.8526420  0.8857075  )
        33        C      tau(  33) = (  0.7302901  0.2426845  0.5389512  )
        34        C      tau(  34) = (  0.7573155  0.2697099  0.9610488  )
        35        C      tau(  35) = (  0.2697099  0.7573155  0.4610488  )
        36        C      tau(  36) = (  0.2426845  0.7302901  0.0389512  )
        37        C      tau(  37) = (  0.7057985  0.3838285  0.5703226  )
        38        C      tau(  38) = (  0.6161715  0.2942015  0.9296774  )
        39        C      tau(  39) = (  0.2942015  0.6161715  0.4296774  )
        40        C      tau(  40) = (  0.3838285  0.7057985  0.0703226  )
        41        H      tau(  41) = (  0.7525329  0.3913912  0.5164468  )
        42        H      tau(  42) = (  0.6086088  0.2474671  0.9835532  )
        43        H      tau(  43) = (  0.2474671  0.6086088  0.4835532  )
        44        H      tau(  44) = (  0.3913912  0.7525329  0.0164468  )
        45        C      tau(  45) = (  0.5852698  0.6419170  0.7025698  )
        46        C      tau(  46) = (  0.3580830  0.4147302  0.7974302  )
        47        C      tau(  47) = (  0.4147302  0.3580830  0.2974302  )
        48        C      tau(  48) = (  0.6419170  0.5852698  0.2025698  )
        49        C      tau(  49) = (  0.4925831  0.7418138  0.8028931  )
        50        C      tau(  50) = (  0.2581862  0.5074169  0.6971069  )
        51        C      tau(  51) = (  0.5074169  0.2581862  0.1971069  )
        52        C      tau(  52) = (  0.7418138  0.4925831  0.3028931  )
        53        C      tau(  53) = (  0.4521337  0.8904216  0.8580670  )
        54        C      tau(  54) = (  0.1095784  0.5478663  0.6419330  )
        55        C      tau(  55) = (  0.5478663  0.1095784  0.1419330  )
        56        C      tau(  56) = (  0.8904216  0.4521337  0.3580670  )
        57        H      tau(  57) = (  0.3803428  0.9686896  0.9322930  )
        58        H      tau(  58) = (  0.0313104  0.6196572  0.5677070  )
        59        H      tau(  59) = (  0.6196572  0.0313104  0.0677070  )
        60        H      tau(  60) = (  0.9686896  0.3803428  0.4322930  )
        61        C      tau(  61) = (  0.5001838  0.9361326  0.8173708  )
        62        C      tau(  62) = (  0.0638674  0.4998162  0.6826292  )
        63        C      tau(  63) = (  0.4998162  0.0638674  0.1826292  )
        64        C      tau(  64) = (  0.9361326  0.5001838  0.3173708  )
        65        H      tau(  65) = (  0.4681840  0.0500368  0.8593615  )
        66        H      tau(  66) = (  0.9499632  0.5318160  0.6406385  )
        67        H      tau(  67) = (  0.5318160  0.9499632  0.1406385  )
        68        H      tau(  68) = (  0.0500368  0.4681840  0.3593615  )
        69        C      tau(  69) = (  0.5864977  0.8381823  0.7173571  )
        70        C      tau(  70) = (  0.1618177  0.4135023  0.7826429  )
        71        C      tau(  71) = (  0.4135023  0.1618177  0.2826429  )
        72        C      tau(  72) = (  0.8381823  0.5864977  0.2173571  )
        73        C      tau(  73) = (  0.6272471  0.6924376  0.6587290  )
        74        C      tau(  74) = (  0.3075624  0.3727529  0.8412710  )
        75        C      tau(  75) = (  0.3727529  0.3075624  0.3412710  )
        76        C      tau(  76) = (  0.6924376  0.6272471  0.1587290  )
        77        H      tau(  77) = (  0.6906812  0.6213031  0.5800859  )
        78        H      tau(  78) = (  0.3786969  0.3093188  0.9199141  )
        79        H      tau(  79) = (  0.3093188  0.3786969  0.4199141  )
        80        H      tau(  80) = (  0.6213031  0.6906812  0.0800859  )
        81        N      tau(  81) = (  0.6697664  0.2399100  0.6093069  )
        82        N      tau(  82) = (  0.7600900  0.3302336  0.8906931  )
        83        N      tau(  83) = (  0.3302336  0.7600900  0.3906931  )
        84        N      tau(  84) = (  0.2399100  0.6697664  0.1093069  )
        85        N      tau(  85) = (  0.6230951  0.4974534  0.6585329  )
        86        N      tau(  86) = (  0.5025466  0.3769049  0.8414671  )
        87        N      tau(  87) = (  0.3769049  0.5025466  0.3414671  )
        88        N      tau(  88) = (  0.4974534  0.6230951  0.1585329  )
        89        N      tau(  89) = (  0.6317393  0.8900983  0.6741939  )
        90        N      tau(  90) = (  0.1099017  0.3682607  0.8258061  )
        91        N      tau(  91) = (  0.3682607  0.1099017  0.3258061  )
        92        N      tau(  92) = (  0.8900983  0.6317393  0.1741939  )
        93        O      tau(  93) = (  0.4484760  0.6959484  0.8385981  )
        94        O      tau(  94) = (  0.3040516  0.5515240  0.6614019  )
        95        O      tau(  95) = (  0.5515240  0.3040516  0.1614019  )
        96        O      tau(  96) = (  0.6959484  0.4484760  0.3385981  )
        97        O      tau(  97) = (  0.6164765  0.0072820  0.7389208  )
        98        O      tau(  98) = (  0.9927180  0.3835235  0.7610792  )
        99        O      tau(  99) = (  0.3835235  0.9927180  0.2610792  )
       100        O      tau( 100) = (  0.0072820  0.6164765  0.2389208  )
       101        O      tau( 101) = (  0.6856747  0.8169307  0.5747144  )
       102        O      tau( 102) = (  0.1830693  0.3143253  0.9252856  )
       103        O      tau( 103) = (  0.3143253  0.1830693  0.4252856  )
       104        O      tau( 104) = (  0.8169307  0.6856747  0.0747144  )
       105        Fe     tau( 105) = (  0.5385337  0.4614663  0.7500000  )
       106        Fe     tau( 106) = (  0.4614663  0.5385337  0.2500000  )

     number of k points=     8
                       cart. coord. in units 2pi/alat
        k(    1) = (   0.0000000   0.0000000   0.0000000), wk =   0.0555556
        k(    2) = (  -0.0039903  -0.0000000  -0.5742640), wk =   0.0555556
        k(    3) = (   0.1787887   0.4706541   0.0819714), wk =   0.2222222
        k(    4) = (   0.1747984   0.4706541  -0.4922925), wk =   0.2222222
        k(    5) = (   0.3575773   0.0000000   0.1639429), wk =   0.1111111
        k(    6) = (   0.3535871   0.0000000  -0.4103211), wk =   0.1111111
        k(    7) = (  -0.0000000  -0.9413083  -0.0000000), wk =   0.1111111
        k(    8) = (  -0.0039903  -0.9413083  -0.5742640), wk =   0.1111111

                       cryst. coord.
        k(    1) = (   0.0000000   0.0000000   0.0000000), wk =   0.0555556
        k(    2) = (   0.0000000   0.0000000  -0.5000000), wk =   0.0555556
        k(    3) = (  -0.0000000   0.3333333  -0.0000000), wk =   0.2222222
        k(    4) = (  -0.0000000   0.3333333  -0.5000000), wk =   0.2222222
        k(    5) = (   0.3333333   0.3333333  -0.0000000), wk =   0.1111111
        k(    6) = (   0.3333333   0.3333333  -0.5000000), wk =   0.1111111
        k(    7) = (   0.3333333  -0.3333333   0.0000000), wk =   0.1111111
        k(    8) = (   0.3333333  -0.3333333  -0.5000000), wk =   0.1111111

     Dense  grid:  4552753 G-vectors     FFT dimensions: ( 250, 250, 240)

     Smooth grid:   876069 G-vectors     FFT dimensions: ( 144, 144, 144)

     Dynamical RAM for                 wfc:       5.17 MB

     Dynamical RAM for     wfc (w. buffer):      46.52 MB

     Dynamical RAM for             U proj.:       0.26 MB

     Dynamical RAM for  U proj. (w. buff.):       2.35 MB

     Dynamical RAM for           str. fact:       5.43 MB

     Dynamical RAM for           local pot:       0.00 MB

     Dynamical RAM for          nlocal pot:      17.65 MB

     Dynamical RAM for                qrad:      26.36 MB

     Dynamical RAM for          rho,v,vnew:      17.96 MB

     Dynamical RAM for               rhoin:       5.99 MB

     Dynamical RAM for            rho*nmix:      34.73 MB

     Dynamical RAM for           G-vectors:       4.17 MB

     Dynamical RAM for          h,s,v(r/c):       1.79 MB

     Dynamical RAM for          <psi|beta>:       2.04 MB

     Dynamical RAM for                 psi:      10.34 MB

     Dynamical RAM for                hpsi:      10.34 MB

     Dynamical RAM for                spsi:      10.34 MB

     Dynamical RAM for      wfcinit/wfcrot:      11.24 MB

     Dynamical RAM for           addusdens:     128.63 MB

     Dynamical RAM for          addusforce:     179.47 MB

     Dynamical RAM for         addusstress:     110.44 MB

     Estimated static dynamical RAM per process >     144.38 MB

     Estimated max dynamical RAM per process >     358.59 MB

     Estimated total dynamical RAM >      42.65 GB
     Generating pointlists ...
     new r_m :   0.0358 (alat units)  0.8464 (a.u.) for type    1
     new r_m :   0.0702 (alat units)  1.6581 (a.u.) for type    2
     new r_m :   0.0358 (alat units)  0.8464 (a.u.) for type    3
     new r_m :   0.0413 (alat units)  0.9757 (a.u.) for type    4
     new r_m :   0.0413 (alat units)  0.9757 (a.u.) for type    5

     Initial potential from superposition of free atoms

     starting charge     387.9967, renormalised to     388.0000

     HUBBARD ENERGY =    0.1382  (Ry)

     STARTING HUBBARD OCCUPATIONS:

     =================== HUBBARD OCCUPATIONS ===================
     ------------------------ ATOM  105 ------------------------
     Tr[ns(105)] (up, down, total) =   5.00000  1.00000  6.00000
     Atomic magnetic moment for atom 105 =   4.00000
     SPIN  1
     eigenvalues:
       1.000  1.000  1.000  1.000  1.000
     eigenvectors (columns):
       1.000  0.000  0.000  0.000  0.000
       0.000  1.000  0.000  0.000  0.000
       0.000  0.000  1.000  0.000  0.000
       0.000  0.000  0.000  1.000  0.000
       0.000  0.000  0.000  0.000  1.000
     occupation matrix ns (before diag.):
       1.000  0.000  0.000  0.000  0.000
       0.000  1.000  0.000  0.000  0.000
       0.000  0.000  1.000  0.000  0.000
       0.000  0.000  0.000  1.000  0.000
       0.000  0.000  0.000  0.000  1.000
     SPIN  2
     eigenvalues:
       0.200  0.200  0.200  0.200  0.200
     eigenvectors (columns):
       1.000  0.000  0.000  0.000  0.000
       0.000  1.000  0.000  0.000  0.000
       0.000  0.000  1.000  0.000  0.000
       0.000  0.000  0.000  1.000  0.000
       0.000  0.000  0.000  0.000  1.000
     occupation matrix ns (before diag.):
       0.200  0.000  0.000  0.000  0.000
       0.000  0.200  0.000  0.000  0.000
       0.000  0.000  0.200  0.000  0.000
       0.000  0.000  0.000  0.200  0.000
       0.000  0.000  0.000  0.000  0.200
     ------------------------ ATOM  106 ------------------------
     Tr[ns(106)] (up, down, total) =   5.00000  1.00000  6.00000
     Atomic magnetic moment for atom 106 =   4.00000
     SPIN  1
     eigenvalues:
       1.000  1.000  1.000  1.000  1.000
     eigenvectors (columns):
       1.000  0.000  0.000  0.000  0.000
       0.000  1.000  0.000  0.000  0.000
       0.000  0.000  1.000  0.000  0.000
       0.000  0.000  0.000  1.000  0.000
       0.000  0.000  0.000  0.000  1.000
     occupation matrix ns (before diag.):
       1.000  0.000  0.000  0.000  0.000
       0.000  1.000  0.000  0.000  0.000
       0.000  0.000  1.000  0.000  0.000
       0.000  0.000  0.000  1.000  0.000
       0.000  0.000  0.000  0.000  1.000
     SPIN  2
     eigenvalues:
       0.200  0.200  0.200  0.200  0.200
     eigenvectors (columns):
       1.000  0.000  0.000  0.000  0.000
       0.000  1.000  0.000  0.000  0.000
       0.000  0.000  1.000  0.000  0.000
       0.000  0.000  0.000  1.000  0.000
       0.000  0.000  0.000  0.000  1.000
     occupation matrix ns (before diag.):
       0.200  0.000  0.000  0.000  0.000
       0.000  0.200  0.000  0.000  0.000
       0.000  0.000  0.200  0.000  0.000
       0.000  0.000  0.000  0.200  0.000
       0.000  0.000  0.000  0.000  0.200

     Number of occupied Hubbard levels =   12.0000

     Atomic wfc used for Hubbard projectors are NOT orthogonalized

     Starting wfcs are  346 randomized atomic wfcs
     Checking if some PAW data can be deallocated... 
       PAW data deallocated on   68 nodes for type:  1
       PAW data deallocated on  126 nodes for type:  2
       PAW data deallocated on  116 nodes for type:  5

     total cpu time spent up to now is       23.9 secs

     per-process dynamical memory:   213.1 Mb

     Self-consistent Calculation

     iteration #  1     ecut=    90.00 Ry     beta= 0.30
     Davidson diagonalization with overlap

---- Real-time Memory Report at c_bands before calling an iterative solver
           259 MiB given to the printing process from OS
           208 MiB allocation reported by mallinfo(arena+hblkhd)
        479943 MiB available memory on the node where the printing process lives
------------------
     ethr =  1.00E-02,  avg # of iterations =  2.0

     =================== HUBBARD OCCUPATIONS ===================
     ------------------------ ATOM  105 ------------------------
     Tr[ns(105)] (up, down, total) =   4.96926  0.52577  5.49503
     Atomic magnetic moment for atom 105 =   4.44350
     SPIN  1
     eigenvalues:
       0.988  0.991  0.995  0.997  0.998
     eigenvectors (columns):
       0.950  0.000 -0.279 -0.137  0.000
       0.311  0.000  0.852  0.420 -0.000
      -0.000  0.403  0.000 -0.000 -0.915
      -0.001  0.000 -0.442  0.897 -0.000
      -0.000  0.915 -0.000  0.000  0.403
     occupation matrix ns (before diag.):
       0.989 -0.002 -0.000 -0.000  0.000
      -0.002  0.995 -0.000  0.001  0.000
      -0.000 -0.000  0.997  0.000 -0.002
      -0.000  0.001  0.000  0.997 -0.000
       0.000  0.000 -0.002 -0.000  0.992
     SPIN  2
     eigenvalues:
       0.044  0.067  0.069  0.155  0.191
     eigenvectors (columns):
       0.490 -0.000 -0.860  0.000 -0.143
      -0.528 -0.000 -0.423  0.000  0.736
       0.000  0.584 -0.000 -0.812  0.000
       0.694  0.000  0.285  0.000  0.662
       0.000  0.812 -0.000  0.584 -0.000
     occupation matrix ns (before diag.):
       0.065 -0.006 -0.000 -0.020  0.000
      -0.006  0.128 -0.000  0.069  0.000
      -0.000 -0.000  0.125  0.000 -0.042
      -0.020  0.069  0.000  0.111 -0.000
       0.000  0.000 -0.042 -0.000  0.097
     ------------------------ ATOM  106 ------------------------
     Tr[ns(106)] (up, down, total) =   4.96926  0.52577  5.49503
     Atomic magnetic moment for atom 106 =   4.44350
     SPIN  1
     eigenvalues:
       0.988  0.991  0.995  0.997  0.998
     eigenvectors (columns):
       0.950  0.000 -0.279 -0.137  0.000
       0.311  0.000  0.852  0.420 -0.000
      -0.000  0.403  0.000 -0.000 -0.915
      -0.001  0.000 -0.442  0.897 -0.000
      -0.000  0.915 -0.000  0.000  0.403
     occupation matrix ns (before diag.):
       0.989 -0.002 -0.000 -0.000  0.000
      -0.002  0.995 -0.000  0.001  0.000
      -0.000 -0.000  0.997  0.000 -0.002
      -0.000  0.001  0.000  0.997 -0.000
       0.000  0.000 -0.002 -0.000  0.992
     SPIN  2
     eigenvalues:
       0.044  0.067  0.069  0.155  0.191
     eigenvectors (columns):
       0.490 -0.000 -0.860  0.000 -0.143
      -0.528 -0.000 -0.423  0.000  0.736
       0.000  0.584 -0.000 -0.812  0.000
       0.694  0.000  0.285  0.000  0.662
       0.000  0.812 -0.000  0.584 -0.000
     occupation matrix ns (before diag.):
       0.065 -0.006 -0.000 -0.020  0.000
      -0.006  0.128 -0.000  0.069  0.000
      -0.000 -0.000  0.125  0.000 -0.042
      -0.020  0.069  0.000  0.111 -0.000
       0.000  0.000 -0.042 -0.000  0.097

     Number of occupied Hubbard levels =   10.9901

     negative rho (up, down):  0.000E+00 2.706E-05

     HUBBARD ENERGY =    0.0837  (Ry)

     total cpu time spent up to now is       49.9 secs

     total energy              =   -2328.91590872 Ry
     estimated scf accuracy    <      12.34301721 Ry

     total magnetization       =     8.00 Bohr mag/cell
     absolute magnetization    =    11.24 Bohr mag/cell

     iteration #  2     ecut=    90.00 Ry     beta= 0.30
     Davidson diagonalization with overlap

---- Real-time Memory Report at c_bands before calling an iterative solver
           383 MiB given to the printing process from OS
           254 MiB allocation reported by mallinfo(arena+hblkhd)
        475729 MiB available memory on the node where the printing process lives
------------------
     ethr =  3.18E-03,  avg # of iterations =  4.8

     =================== HUBBARD OCCUPATIONS ===================
     ------------------------ ATOM  105 ------------------------
     Tr[ns(105)] (up, down, total) =   4.97333  3.63095  8.60428
     Atomic magnetic moment for atom 105 =   1.34238
     SPIN  1
     eigenvalues:
       0.993  0.994  0.995  0.996  0.996
     eigenvectors (columns):
      -0.943  0.000  0.295 -0.000 -0.157
      -0.307  0.000 -0.950  0.000  0.054
       0.000  0.189 -0.000 -0.982  0.000
      -0.133  0.000  0.099  0.000  0.986
       0.000  0.982  0.000  0.189 -0.000
     occupation matrix ns (before diag.):
       0.993 -0.001 -0.000 -0.000  0.000
      -0.001  0.995 -0.000 -0.000  0.000
      -0.000 -0.000  0.995  0.000 -0.000
      -0.000 -0.000  0.000  0.996 -0.000
       0.000  0.000 -0.000 -0.000  0.994
     SPIN  2
     eigenvalues:
       0.394  0.468  0.857  0.933  0.979
     eigenvectors (columns):
       0.000 -0.098  0.345  0.000  0.933
      -0.000  0.743 -0.599  0.000  0.299
       0.777  0.000  0.000 -0.629  0.000
      -0.000  0.662  0.723  0.000 -0.197
      -0.629 -0.000  0.000 -0.777  0.000
     occupation matrix ns (before diag.):
       0.960  0.063  0.000  0.003  0.000
       0.063  0.653 -0.000 -0.199  0.000
       0.000 -0.000  0.607 -0.000  0.263
       0.003 -0.199 -0.000  0.691 -0.000
       0.000  0.000  0.263 -0.000  0.720
     ------------------------ ATOM  106 ------------------------
     Tr[ns(106)] (up, down, total) =   4.97333  3.63095  8.60428
     Atomic magnetic moment for atom 106 =   1.34238
     SPIN  1
     eigenvalues:
       0.993  0.994  0.995  0.996  0.996
     eigenvectors (columns):
      -0.943  0.000  0.295 -0.000 -0.157
      -0.307  0.000 -0.950  0.000  0.054
       0.000  0.189 -0.000 -0.982  0.000
      -0.133  0.000  0.099  0.000  0.986
       0.000  0.982  0.000  0.189 -0.000
     occupation matrix ns (before diag.):
       0.993 -0.001 -0.000 -0.000  0.000
      -0.001  0.995 -0.000 -0.000  0.000
      -0.000 -0.000  0.995  0.000 -0.000
      -0.000 -0.000  0.000  0.996 -0.000
       0.000  0.000 -0.000 -0.000  0.994
     SPIN  2
     eigenvalues:
       0.394  0.468  0.857  0.933  0.979
     eigenvectors (columns):
       0.000 -0.098  0.345  0.000  0.933
      -0.000  0.743 -0.599  0.000  0.299
       0.777  0.000  0.000 -0.629  0.000
      -0.000  0.662  0.723  0.000 -0.197
      -0.629 -0.000  0.000 -0.777  0.000
     occupation matrix ns (before diag.):
       0.960  0.063  0.000  0.003  0.000
       0.063  0.653 -0.000 -0.199  0.000
       0.000 -0.000  0.607 -0.000  0.263
       0.003 -0.199 -0.000  0.691 -0.000
       0.000  0.000  0.263 -0.000  0.720

     Number of occupied Hubbard levels =   17.2086

     negative rho (up, down):  0.000E+00 6.660E-06

     HUBBARD ENERGY =    0.1410  (Ry)

     total cpu time spent up to now is       75.3 secs

     total energy              =   -2328.02537641 Ry
     estimated scf accuracy    <      12.84808563 Ry

     total magnetization       =     8.00 Bohr mag/cell
     absolute magnetization    =     8.31 Bohr mag/cell

     iteration #  3     ecut=    90.00 Ry     beta= 0.30
     Davidson diagonalization with overlap

---- Real-time Memory Report at c_bands before calling an iterative solver
           383 MiB given to the printing process from OS
           256 MiB allocation reported by mallinfo(arena+hblkhd)
        475710 MiB available memory on the node where the printing process lives
------------------
     ethr =  3.18E-03,  avg # of iterations =  3.2

     =================== HUBBARD OCCUPATIONS ===================
     ------------------------ ATOM  105 ------------------------
     Tr[ns(105)] (up, down, total) =   4.96210  0.52417  5.48627
     Atomic magnetic moment for atom 105 =   4.43793
     SPIN  1
     eigenvalues:
       0.987  0.990  0.994  0.995  0.997
     eigenvectors (columns):
      -0.942  0.000 -0.325  0.083  0.000
      -0.328  0.000  0.838 -0.437  0.000
       0.000  0.463  0.000  0.000 -0.886
       0.072  0.000 -0.439 -0.896 -0.000
       0.000  0.886 -0.000 -0.000  0.463
     occupation matrix ns (before diag.):
       0.988 -0.002 -0.000  0.000  0.000
      -0.002  0.993 -0.000  0.001  0.000
      -0.000 -0.000  0.995  0.000 -0.003
       0.000  0.001  0.000  0.995 -0.000
       0.000  0.000 -0.003 -0.000  0.991
     SPIN  2
     eigenvalues:
       0.039  0.055  0.057  0.172  0.200
     eigenvectors (columns):
       0.604 -0.784  0.000  0.000 -0.139
      -0.465 -0.489  0.000  0.000  0.738
       0.000  0.000  0.603 -0.798  0.000
       0.647  0.381 -0.000  0.000  0.660
       0.000  0.000  0.798  0.603 -0.000
     occupation matrix ns (before diag.):
       0.052 -0.010 -0.000 -0.020  0.000
      -0.010  0.131 -0.000  0.075  0.000
      -0.000 -0.000  0.130  0.000 -0.055
      -0.020  0.075  0.000  0.112 -0.000
       0.000  0.000 -0.055 -0.000  0.099
     ------------------------ ATOM  106 ------------------------
     Tr[ns(106)] (up, down, total) =   4.96210  0.52417  5.48627
     Atomic magnetic moment for atom 106 =   4.43793
     SPIN  1
     eigenvalues:
       0.987  0.990  0.994  0.995  0.997
     eigenvectors (columns):
      -0.942  0.000 -0.325  0.083  0.000
      -0.328  0.000  0.838 -0.437 -0.000
       0.000  0.463  0.000  0.000 -0.886
       0.072  0.000 -0.439 -0.896 -0.000
       0.000  0.886 -0.000 -0.000  0.463
     occupation matrix ns (before diag.):
       0.988 -0.002 -0.000  0.000  0.000
      -0.002  0.993 -0.000  0.001  0.000
      -0.000 -0.000  0.995  0.000 -0.003
       0.000  0.001  0.000  0.995 -0.000
       0.000  0.000 -0.003 -0.000  0.991
     SPIN  2
     eigenvalues:
       0.039  0.055  0.057  0.172  0.200
     eigenvectors (columns):
       0.604 -0.784  0.000  0.000 -0.139
      -0.465 -0.489  0.000  0.000  0.738
       0.000  0.000  0.603 -0.798  0.000
       0.647  0.381 -0.000  0.000  0.660
       0.000  0.000  0.798  0.603 -0.000
     occupation matrix ns (before diag.):
       0.052 -0.010 -0.000 -0.020  0.000
      -0.010  0.131 -0.000  0.075  0.000
      -0.000 -0.000  0.130  0.000 -0.055
      -0.020  0.075  0.000  0.112 -0.000
       0.000  0.000 -0.055 -0.000  0.099

     Number of occupied Hubbard levels =   10.9725

     negative rho (up, down):  0.000E+00 8.988E-05

     HUBBARD ENERGY =    0.1589  (Ry)

     total cpu time spent up to now is       96.4 secs

     total energy              =   -2329.46076481 Ry
     estimated scf accuracy    <       3.62732224 Ry

     total magnetization       =     8.00 Bohr mag/cell
     absolute magnetization    =    11.55 Bohr mag/cell

     iteration #  4     ecut=    90.00 Ry     beta= 0.30
     Davidson diagonalization with overlap

---- Real-time Memory Report at c_bands before calling an iterative solver
           384 MiB given to the printing process from OS
           257 MiB allocation reported by mallinfo(arena+hblkhd)
        475641 MiB available memory on the node where the printing process lives
------------------
     ethr =  9.35E-04,  avg # of iterations =  1.9

     =================== HUBBARD OCCUPATIONS ===================
     ------------------------ ATOM  105 ------------------------
     Tr[ns(105)] (up, down, total) =   4.96508  0.69459  5.65967
     Atomic magnetic moment for atom 105 =   4.27049
     SPIN  1
     eigenvalues:
       0.988  0.990  0.995  0.996  0.997
     eigenvectors (columns):
       0.943  0.000 -0.331 -0.041  0.000
       0.326  0.000  0.891  0.314  0.000
      -0.000  0.455  0.000 -0.000 -0.890
      -0.068  0.000 -0.310  0.948 -0.000
      -0.000  0.890 -0.000  0.000  0.455
     occupation matrix ns (before diag.):
       0.989 -0.002 -0.000  0.000  0.000
      -0.002  0.994 -0.000  0.000  0.000
      -0.000 -0.000  0.995  0.000 -0.003
       0.000  0.000  0.000  0.995 -0.000
       0.000  0.000 -0.003 -0.000  0.992
     SPIN  2
     eigenvalues:
       0.062  0.102  0.109  0.191  0.231
     eigenvectors (columns):
      -0.402 -0.000  0.903  0.000 -0.152
       0.564 -0.000  0.375  0.000  0.736
      -0.000  0.596  0.000 -0.803  0.000
      -0.721  0.000 -0.210  0.000  0.660
      -0.000  0.803  0.000  0.596 -0.000
     occupation matrix ns (before diag.):
       0.104 -0.003 -0.000 -0.026  0.000
      -0.003  0.160 -0.000  0.079  0.000
      -0.000 -0.000  0.159  0.000 -0.043
      -0.026  0.079  0.000  0.138 -0.000
       0.000  0.000 -0.043 -0.000  0.133
     ------------------------ ATOM  106 ------------------------
     Tr[ns(106)] (up, down, total) =   4.96508  0.69459  5.65967
     Atomic magnetic moment for atom 106 =   4.27049
     SPIN  1
     eigenvalues:
       0.988  0.990  0.995  0.996  0.997
     eigenvectors (columns):
       0.943  0.000 -0.331 -0.041  0.000
       0.326  0.000  0.891  0.314  0.000
      -0.000  0.455  0.000 -0.000 -0.890
      -0.068  0.000 -0.310  0.948 -0.000
      -0.000  0.890 -0.000  0.000  0.455
     occupation matrix ns (before diag.):
       0.989 -0.002 -0.000  0.000  0.000
      -0.002  0.994 -0.000  0.000  0.000
      -0.000 -0.000  0.995  0.000 -0.003
       0.000  0.000  0.000  0.995 -0.000
       0.000  0.000 -0.003 -0.000  0.992
     SPIN  2
     eigenvalues:
       0.062  0.102  0.109  0.191  0.231
     eigenvectors (columns):
      -0.402 -0.000  0.903  0.000 -0.152
       0.564 -0.000  0.375  0.000  0.736
      -0.000  0.596  0.000 -0.803  0.000
      -0.721  0.000 -0.210  0.000  0.660
      -0.000  0.803  0.000  0.596 -0.000
     occupation matrix ns (before diag.):
       0.104 -0.003 -0.000 -0.026  0.000
      -0.003  0.160 -0.000  0.079  0.000
      -0.000 -0.000  0.159  0.000 -0.043
      -0.026  0.079  0.000  0.138 -0.000
       0.000  0.000 -0.043 -0.000  0.133

     Number of occupied Hubbard levels =   11.3193

     negative rho (up, down):  0.000E+00 1.762E-04

     HUBBARD ENERGY =    0.1628  (Ry)

     total cpu time spent up to now is      116.2 secs

     total energy              =   -2329.28118057 Ry
     estimated scf accuracy    <       1.34311006 Ry

     total magnetization       =     8.00 Bohr mag/cell
     absolute magnetization    =    11.22 Bohr mag/cell

     iteration #  5     ecut=    90.00 Ry     beta= 0.30
     Davidson diagonalization with overlap

---- Real-time Memory Report at c_bands before calling an iterative solver
           386 MiB given to the printing process from OS
           259 MiB allocation reported by mallinfo(arena+hblkhd)
        475512 MiB available memory on the node where the printing process lives
------------------
     ethr =  3.46E-04,  avg # of iterations =  2.9

     =================== HUBBARD OCCUPATIONS ===================
     ------------------------ ATOM  105 ------------------------
     Tr[ns(105)] (up, down, total) =   4.97752  1.84696  6.82449
     Atomic magnetic moment for atom 105 =   3.13056
     SPIN  1
     eigenvalues:
       0.993  0.994  0.996  0.997  0.997
     eigenvectors (columns):
      -0.942  0.000 -0.314 -0.122 -0.000
      -0.337  0.000  0.892  0.303  0.000
       0.000  0.354 -0.000  0.000 -0.935
       0.014  0.000  0.327 -0.945 -0.000
       0.000  0.935 -0.000 -0.000  0.354
     occupation matrix ns (before diag.):
       0.993 -0.001 -0.000  0.000  0.000
      -0.001  0.996 -0.000 -0.000  0.000
      -0.000 -0.000  0.997  0.000 -0.001
       0.000 -0.000  0.000  0.997 -0.000
       0.000  0.000 -0.001 -0.000  0.995
     SPIN  2
     eigenvalues:
       0.178  0.182  0.285  0.341  0.861
     eigenvectors (columns):
       0.226 -0.000 -0.000  0.114 -0.967
      -0.611  0.000  0.000 -0.757 -0.232
       0.000  0.628 -0.778 -0.000  0.000
       0.759 -0.000 -0.000 -0.643  0.101
       0.000  0.778  0.628  0.000 -0.000
     occupation matrix ns (before diag.):
       0.820  0.139 -0.000 -0.079  0.000
       0.139  0.308 -0.000  0.063  0.000
      -0.000 -0.000  0.244  0.000 -0.050
      -0.079  0.063  0.000  0.253 -0.000
       0.000  0.000 -0.050 -0.000  0.222
     ------------------------ ATOM  106 ------------------------
     Tr[ns(106)] (up, down, total) =   4.97752  1.84696  6.82449
     Atomic magnetic moment for atom 106 =   3.13056
     SPIN  1
     eigenvalues:
       0.993  0.994  0.996  0.997  0.997
     eigenvectors (columns):
      -0.942  0.000 -0.314 -0.122 -0.000
      -0.337  0.000  0.892  0.303  0.000
       0.000  0.354 -0.000  0.000 -0.935
       0.014  0.000  0.327 -0.945 -0.000
       0.000  0.935 -0.000 -0.000  0.354
     occupation matrix ns (before diag.):
       0.993 -0.001 -0.000  0.000  0.000
      -0.001  0.996 -0.000 -0.000  0.000
      -0.000 -0.000  0.997  0.000 -0.001
       0.000 -0.000  0.000  0.997 -0.000
       0.000  0.000 -0.001 -0.000  0.995
     SPIN  2
     eigenvalues:
       0.178  0.182  0.285  0.341  0.861
     eigenvectors (columns):
       0.226 -0.000 -0.000  0.114 -0.967
      -0.611  0.000  0.000 -0.757 -0.232
       0.000  0.628 -0.778 -0.000  0.000
       0.759 -0.000 -0.000 -0.643  0.101
       0.000  0.778  0.628  0.000 -0.000
     occupation matrix ns (before diag.):
       0.820  0.139 -0.000 -0.079  0.000
       0.139  0.308 -0.000  0.063  0.000
      -0.000 -0.000  0.244  0.000 -0.050
      -0.079  0.063  0.000  0.253 -0.000
       0.000  0.000 -0.050 -0.000  0.222

     Number of occupied Hubbard levels =   13.6490

     negative rho (up, down):  0.000E+00 1.816E-04

     HUBBARD ENERGY =    0.1645  (Ry)

     total cpu time spent up to now is      137.6 secs

     total energy              =   -2329.51443818 Ry
     estimated scf accuracy    <       0.57375823 Ry

     total magnetization       =     8.00 Bohr mag/cell
     absolute magnetization    =     8.57 Bohr mag/cell

     iteration #  6     ecut=    90.00 Ry     beta= 0.30
     Davidson diagonalization with overlap

---- Real-time Memory Report at c_bands before calling an iterative solver
           388 MiB given to the printing process from OS
           260 MiB allocation reported by mallinfo(arena+hblkhd)
        475429 MiB available memory on the node where the printing process lives
------------------
     ethr =  1.48E-04,  avg # of iterations =  2.0

     =================== HUBBARD OCCUPATIONS ===================
     ------------------------ ATOM  105 ------------------------
     Tr[ns(105)] (up, down, total) =   4.97960  1.77836  6.75796
     Atomic magnetic moment for atom 105 =   3.20124
     SPIN  1
     eigenvalues:
       0.994  0.995  0.996  0.997  0.997
     eigenvectors (columns):
      -0.943  0.000 -0.297 -0.151 -0.000
      -0.333  0.000  0.863  0.379  0.000
       0.000  0.335 -0.000  0.000 -0.942
       0.017  0.000  0.408 -0.913 -0.000
       0.000  0.942 -0.000 -0.000  0.335
     occupation matrix ns (before diag.):
       0.994 -0.001 -0.000  0.000  0.000
      -0.001  0.996 -0.000 -0.000  0.000
      -0.000 -0.000  0.997  0.000 -0.001
       0.000 -0.000  0.000  0.997 -0.000
       0.000  0.000 -0.001 -0.000  0.995
     SPIN  2
     eigenvalues:
       0.152  0.152  0.284  0.335  0.856
     eigenvectors (columns):
       0.225 -0.000 -0.000  0.114 -0.967
      -0.620  0.000  0.000 -0.749 -0.233
       0.000  0.641 -0.768 -0.000  0.000
       0.752 -0.000  0.000 -0.652  0.098
       0.000  0.768  0.641  0.000 -0.000
     occupation matrix ns (before diag.):
       0.813  0.143 -0.000 -0.080  0.000
       0.143  0.293 -0.000  0.073  0.000
      -0.000 -0.000  0.230  0.000 -0.065
      -0.080  0.073  0.000  0.236 -0.000
       0.000  0.000 -0.065 -0.000  0.206
     ------------------------ ATOM  106 ------------------------
     Tr[ns(106)] (up, down, total) =   4.97960  1.77836  6.75796
     Atomic magnetic moment for atom 106 =   3.20124
     SPIN  1
     eigenvalues:
       0.994  0.995  0.996  0.997  0.997
     eigenvectors (columns):
      -0.943  0.000 -0.297 -0.151 -0.000
      -0.333  0.000  0.863  0.379  0.000
       0.000  0.335 -0.000  0.000 -0.942
       0.017  0.000  0.408 -0.913 -0.000
       0.000  0.942 -0.000 -0.000  0.335
     occupation matrix ns (before diag.):
       0.994 -0.001 -0.000  0.000  0.000
      -0.001  0.996 -0.000 -0.000  0.000
      -0.000 -0.000  0.997  0.000 -0.001
       0.000 -0.000  0.000  0.997 -0.000
       0.000  0.000 -0.001 -0.000  0.995
     SPIN  2
     eigenvalues:
       0.152  0.152  0.284  0.335  0.856
     eigenvectors (columns):
       0.225 -0.000 -0.000  0.114 -0.967
      -0.620  0.000  0.000 -0.749 -0.233
       0.000  0.641 -0.768 -0.000  0.000
       0.752 -0.000  0.000 -0.652  0.098
       0.000  0.768  0.641  0.000 -0.000
     occupation matrix ns (before diag.):
       0.813  0.143 -0.000 -0.080  0.000
       0.143  0.293 -0.000  0.073  0.000
      -0.000 -0.000  0.230  0.000 -0.065
      -0.080  0.073  0.000  0.236 -0.000
       0.000  0.000 -0.065 -0.000  0.206

     Number of occupied Hubbard levels =   13.5159

     negative rho (up, down):  0.000E+00 2.029E-04

     HUBBARD ENERGY =    0.1547  (Ry)

     total cpu time spent up to now is      156.9 secs

     total energy              =   -2329.48197615 Ry
     estimated scf accuracy    <       0.45235916 Ry

     total magnetization       =     8.00 Bohr mag/cell
     absolute magnetization    =     8.63 Bohr mag/cell

     iteration #  7     ecut=    90.00 Ry     beta= 0.30
     Davidson diagonalization with overlap

---- Real-time Memory Report at c_bands before calling an iterative solver
           389 MiB given to the printing process from OS
           262 MiB allocation reported by mallinfo(arena+hblkhd)
        475348 MiB available memory on the node where the printing process lives
------------------
     ethr =  1.17E-04,  avg # of iterations =  9.6

     =================== HUBBARD OCCUPATIONS ===================
     ------------------------ ATOM  105 ------------------------
     Tr[ns(105)] (up, down, total) =   4.97878  1.41193  6.39071
     Atomic magnetic moment for atom 105 =   3.56685
     SPIN  1
     eigenvalues:
       0.993  0.995  0.996  0.997  0.997
     eigenvectors (columns):
       0.945  0.000 -0.273  0.180 -0.000
       0.322  0.000  0.875 -0.362  0.000
      -0.000  0.377 -0.000 -0.000 -0.926
      -0.058  0.000  0.400  0.915 -0.000
      -0.000  0.926 -0.000  0.000  0.377
     occupation matrix ns (before diag.):
       0.993 -0.001 -0.000  0.000  0.000
      -0.001  0.996 -0.000 -0.000  0.000
      -0.000 -0.000  0.997  0.000 -0.001
       0.000 -0.000  0.000  0.997 -0.000
       0.000  0.000 -0.001 -0.000  0.995
     SPIN  2
     eigenvalues:
       0.082  0.088  0.251  0.283  0.708
     eigenvectors (columns):
       0.224 -0.000 -0.000  0.122 -0.967
      -0.647  0.000  0.000 -0.723 -0.241
       0.000  0.665 -0.747 -0.000  0.000
       0.729 -0.000  0.000 -0.680  0.083
       0.000  0.747  0.665  0.000 -0.000
     occupation matrix ns (before diag.):
       0.670  0.128 -0.000 -0.067  0.000
       0.128  0.224 -0.000  0.086  0.000
      -0.000 -0.000  0.179  0.000 -0.081
      -0.067  0.086  0.000  0.179 -0.000
       0.000  0.000 -0.081 -0.000  0.160
     ------------------------ ATOM  106 ------------------------
     Tr[ns(106)] (up, down, total) =   4.97878  1.41193  6.39071
     Atomic magnetic moment for atom 106 =   3.56685
     SPIN  1
     eigenvalues:
       0.993  0.995  0.996  0.997  0.997
     eigenvectors (columns):
       0.945  0.000 -0.273  0.180 -0.000
       0.322  0.000  0.875 -0.362  0.000
      -0.000  0.377 -0.000 -0.000 -0.926
      -0.058  0.000  0.400  0.915 -0.000
      -0.000  0.926 -0.000  0.000  0.377
     occupation matrix ns (before diag.):
       0.993 -0.001 -0.000  0.000  0.000
      -0.001  0.996 -0.000 -0.000  0.000
      -0.000 -0.000  0.997  0.000 -0.001
       0.000 -0.000  0.000  0.997 -0.000
       0.000  0.000 -0.001 -0.000  0.995
     SPIN  2
     eigenvalues:
       0.082  0.088  0.251  0.283  0.708
     eigenvectors (columns):
       0.224 -0.000 -0.000  0.122 -0.967
      -0.647  0.000  0.000 -0.723 -0.241
       0.000  0.665 -0.747 -0.000  0.000
       0.729 -0.000  0.000 -0.680  0.083
       0.000  0.747  0.665  0.000 -0.000
     occupation matrix ns (before diag.):
       0.670  0.128 -0.000 -0.067  0.000
       0.128  0.224 -0.000  0.086  0.000
      -0.000 -0.000  0.179  0.000 -0.081
      -0.067  0.086  0.000  0.179 -0.000
       0.000  0.000 -0.081 -0.000  0.160

     Number of occupied Hubbard levels =   12.7814

     negative rho (up, down):  0.000E+00 2.570E-04

     HUBBARD ENERGY =    0.1481  (Ry)

     total cpu time spent up to now is      186.5 secs

     total energy              =   -2329.52820518 Ry
     estimated scf accuracy    <       0.03058419 Ry

     total magnetization       =     8.00 Bohr mag/cell
     absolute magnetization    =     9.31 Bohr mag/cell

     iteration #  8     ecut=    90.00 Ry     beta= 0.30
     Davidson diagonalization with overlap

---- Real-time Memory Report at c_bands before calling an iterative solver
           391 MiB given to the printing process from OS
           263 MiB allocation reported by mallinfo(arena+hblkhd)
        475270 MiB available memory on the node where the printing process lives
------------------
     ethr =  7.88E-06,  avg # of iterations =  7.8

     =================== HUBBARD OCCUPATIONS ===================
     ------------------------ ATOM  105 ------------------------
     Tr[ns(105)] (up, down, total) =   4.97952  1.56664  6.54617
     Atomic magnetic moment for atom 105 =   3.41288
     SPIN  1
     eigenvalues:
       0.993  0.996  0.996  0.997  0.997
     eigenvectors (columns):
       0.948  0.000 -0.232  0.218 -0.000
       0.300  0.000  0.879 -0.370  0.000
      -0.000  0.410 -0.000 -0.000 -0.912
      -0.105  0.000  0.416  0.903 -0.000
      -0.000  0.912 -0.000  0.000  0.410
     occupation matrix ns (before diag.):
       0.993 -0.001 -0.000  0.001  0.000
      -0.001  0.996 -0.000 -0.000  0.000
      -0.000 -0.000  0.997  0.000 -0.001
       0.001 -0.000  0.000  0.997 -0.000
       0.000  0.000 -0.001 -0.000  0.996
     SPIN  2
     eigenvalues:
       0.086  0.089  0.260  0.292  0.840
     eigenvectors (columns):
       0.219 -0.000 -0.000  0.120 -0.968
      -0.659  0.000  0.000 -0.714 -0.237
       0.000  0.671 -0.742 -0.000  0.000
       0.720 -0.000  0.000 -0.690  0.078
       0.000  0.742  0.671  0.000 -0.000
     occupation matrix ns (before diag.):
       0.796  0.156 -0.000 -0.074  0.000
       0.156  0.233 -0.000  0.088  0.000
      -0.000 -0.000  0.183  0.000 -0.085
      -0.074  0.088  0.000  0.188 -0.000
       0.000  0.000 -0.085 -0.000  0.166
     ------------------------ ATOM  106 ------------------------
     Tr[ns(106)] (up, down, total) =   4.97952  1.56664  6.54617
     Atomic magnetic moment for atom 106 =   3.41288
     SPIN  1
     eigenvalues:
       0.993  0.996  0.996  0.997  0.997
     eigenvectors (columns):
       0.948  0.000 -0.232  0.218 -0.000
       0.300  0.000  0.879 -0.370  0.000
      -0.000  0.410 -0.000 -0.000 -0.912
      -0.105  0.000  0.416  0.903 -0.000
      -0.000  0.912 -0.000  0.000  0.410
     occupation matrix ns (before diag.):
       0.993 -0.001 -0.000  0.001  0.000
      -0.001  0.996 -0.000 -0.000  0.000
      -0.000 -0.000  0.997  0.000 -0.001
       0.001 -0.000  0.000  0.997 -0.000
       0.000  0.000 -0.001 -0.000  0.996
     SPIN  2
     eigenvalues:
       0.086  0.089  0.260  0.292  0.840
     eigenvectors (columns):
       0.219 -0.000 -0.000  0.120 -0.968
      -0.659  0.000  0.000 -0.714 -0.237
       0.000  0.671 -0.742 -0.000  0.000
       0.720 -0.000  0.000 -0.690  0.078
       0.000  0.742  0.671  0.000 -0.000
     occupation matrix ns (before diag.):
       0.796  0.156 -0.000 -0.074  0.000
       0.156  0.233 -0.000  0.088  0.000
      -0.000 -0.000  0.183  0.000 -0.085
      -0.074  0.088  0.000  0.188 -0.000
       0.000  0.000 -0.085 -0.000  0.166

     Number of occupied Hubbard levels =   13.0923

     negative rho (up, down):  0.000E+00 2.619E-04

     HUBBARD ENERGY =    0.1356  (Ry)

     total cpu time spent up to now is      220.0 secs

     total energy              =   -2329.54177688 Ry
     estimated scf accuracy    <       0.07588270 Ry

     total magnetization       =     8.00 Bohr mag/cell
     absolute magnetization    =     8.65 Bohr mag/cell

     iteration #  9     ecut=    90.00 Ry     beta= 0.30
     Davidson diagonalization with overlap

---- Real-time Memory Report at c_bands before calling an iterative solver
           392 MiB given to the printing process from OS
           265 MiB allocation reported by mallinfo(arena+hblkhd)
        475212 MiB available memory on the node where the printing process lives
------------------
     ethr =  7.88E-06,  avg # of iterations =  6.6

     =================== HUBBARD OCCUPATIONS ===================
     ------------------------ ATOM  105 ------------------------
     Tr[ns(105)] (up, down, total) =   4.97843  1.51174  6.49017
     Atomic magnetic moment for atom 105 =   3.46668
     SPIN  1
     eigenvalues:
       0.992  0.996  0.996  0.997  0.997
     eigenvectors (columns):
       0.949  0.000 -0.232  0.214 -0.000
       0.296  0.000  0.890 -0.346  0.000
      -0.000  0.447 -0.000 -0.000 -0.895
      -0.110  0.000  0.392  0.914 -0.000
      -0.000  0.895 -0.000  0.000  0.447
     occupation matrix ns (before diag.):
       0.992 -0.001 -0.000  0.001  0.000
      -0.001  0.996 -0.000 -0.000  0.000
      -0.000 -0.000  0.997  0.000 -0.001
       0.001 -0.000  0.000  0.997 -0.000
       0.000  0.000 -0.001 -0.000  0.996
     SPIN  2
     eigenvalues:
       0.073  0.079  0.247  0.279  0.834
     eigenvectors (columns):
       0.216 -0.000 -0.000  0.121 -0.969
      -0.667  0.000  0.000 -0.706 -0.237
       0.000  0.664 -0.747 -0.000  0.000
       0.713 -0.000  0.000 -0.698  0.072
       0.000  0.747  0.664  0.000 -0.000
     occupation matrix ns (before diag.):
       0.790  0.157 -0.000 -0.070  0.000
       0.157  0.219 -0.000  0.089  0.000
      -0.000 -0.000  0.172  0.000 -0.083
      -0.070  0.089  0.000  0.178 -0.000
       0.000  0.000 -0.083 -0.000  0.153
     ------------------------ ATOM  106 ------------------------
     Tr[ns(106)] (up, down, total) =   4.97843  1.51174  6.49017
     Atomic magnetic moment for atom 106 =   3.46668
     SPIN  1
     eigenvalues:
       0.992  0.996  0.996  0.997  0.997
     eigenvectors (columns):
       0.949  0.000 -0.232  0.214 -0.000
       0.296  0.000  0.890 -0.346  0.000
      -0.000  0.447 -0.000 -0.000 -0.895
      -0.110  0.000  0.392  0.914 -0.000
      -0.000  0.895 -0.000  0.000  0.447
     occupation matrix ns (before diag.):
       0.992 -0.001 -0.000  0.001  0.000
      -0.001  0.996 -0.000 -0.000  0.000
      -0.000 -0.000  0.997  0.000 -0.001
       0.001 -0.000  0.000  0.997 -0.000
       0.000  0.000 -0.001 -0.000  0.996
     SPIN  2
     eigenvalues:
       0.073  0.079  0.247  0.279  0.834
     eigenvectors (columns):
       0.216 -0.000 -0.000  0.121 -0.969
      -0.667  0.000  0.000 -0.706 -0.237
       0.000  0.664 -0.747 -0.000  0.000
       0.713 -0.000  0.000 -0.698  0.072
       0.000  0.747  0.664  0.000 -0.000
     occupation matrix ns (before diag.):
       0.790  0.157 -0.000 -0.070  0.000
       0.157  0.219 -0.000  0.089  0.000
      -0.000 -0.000  0.172  0.000 -0.083
      -0.070  0.089  0.000  0.178 -0.000
       0.000  0.000 -0.083 -0.000  0.153

     Number of occupied Hubbard levels =   12.9803

     negative rho (up, down):  0.000E+00 2.735E-04

     HUBBARD ENERGY =    0.1211  (Ry)

     total cpu time spent up to now is      247.4 secs

     total energy              =   -2329.54243907 Ry
     estimated scf accuracy    <       0.02957354 Ry

     total magnetization       =     8.00 Bohr mag/cell
     absolute magnetization    =     8.66 Bohr mag/cell

     iteration # 10     ecut=    90.00 Ry     beta= 0.30
     Davidson diagonalization with overlap

---- Real-time Memory Report at c_bands before calling an iterative solver
           394 MiB given to the printing process from OS
           266 MiB allocation reported by mallinfo(arena+hblkhd)
        475129 MiB available memory on the node where the printing process lives
------------------
     ethr =  7.62E-06,  avg # of iterations =  6.1

     =================== HUBBARD OCCUPATIONS ===================
     ------------------------ ATOM  105 ------------------------
     Tr[ns(105)] (up, down, total) =   4.97533  1.45193  6.42726
     Atomic magnetic moment for atom 105 =   3.52340
     SPIN  1
     eigenvalues:
       0.989  0.995  0.996  0.997  0.997
     eigenvectors (columns):
       0.952  0.000 -0.250  0.179 -0.000
       0.290  0.000  0.923 -0.254  0.000
      -0.000  0.476 -0.000 -0.000 -0.880
      -0.101  0.000  0.294  0.951 -0.000
      -0.000  0.880 -0.000  0.000  0.476
     occupation matrix ns (before diag.):
       0.990 -0.002 -0.000  0.001  0.000
      -0.002  0.996 -0.000 -0.000  0.000
      -0.000 -0.000  0.997  0.000 -0.001
       0.001 -0.000  0.000  0.997 -0.000
       0.000  0.000 -0.001 -0.000  0.996
     SPIN  2
     eigenvalues:
       0.066  0.072  0.238  0.266  0.811
     eigenvectors (columns):
       0.215 -0.000 -0.000  0.122 -0.969
      -0.671  0.000  0.000 -0.702 -0.238
       0.000  0.670 -0.742 -0.000  0.000
       0.710 -0.000  0.000 -0.701  0.069
       0.000  0.742  0.670  0.000 -0.000
     occupation matrix ns (before diag.):
       0.768  0.154 -0.000 -0.067  0.000
       0.154  0.207 -0.000  0.086  0.000
      -0.000 -0.000  0.163  0.000 -0.083
      -0.067  0.086  0.000  0.168 -0.000
       0.000  0.000 -0.083 -0.000  0.146
     ------------------------ ATOM  106 ------------------------
     Tr[ns(106)] (up, down, total) =   4.97533  1.45193  6.42726
     Atomic magnetic moment for atom 106 =   3.52340
     SPIN  1
     eigenvalues:
       0.989  0.995  0.996  0.997  0.997
     eigenvectors (columns):
       0.952  0.000 -0.250  0.179 -0.000
       0.290  0.000  0.923 -0.254  0.000
      -0.000  0.476 -0.000 -0.000 -0.880
      -0.101  0.000  0.294  0.951 -0.000
      -0.000  0.880 -0.000  0.000  0.476
     occupation matrix ns (before diag.):
       0.990 -0.002 -0.000  0.001  0.000
      -0.002  0.996 -0.000 -0.000  0.000
      -0.000 -0.000  0.997  0.000 -0.001
       0.001 -0.000  0.000  0.997 -0.000
       0.000  0.000 -0.001 -0.000  0.996
     SPIN  2
     eigenvalues:
       0.066  0.072  0.238  0.266  0.811
     eigenvectors (columns):
       0.215 -0.000 -0.000  0.122 -0.969
      -0.671  0.000  0.000 -0.702 -0.238
       0.000  0.670 -0.742 -0.000  0.000
       0.710 -0.000  0.000 -0.701  0.069
       0.000  0.742  0.670  0.000 -0.000
     occupation matrix ns (before diag.):
       0.768  0.154 -0.000 -0.067  0.000
       0.154  0.207 -0.000  0.086  0.000
      -0.000 -0.000  0.163  0.000 -0.083
      -0.067  0.086  0.000  0.168 -0.000
       0.000  0.000 -0.083 -0.000  0.146

     Number of occupied Hubbard levels =   12.8545

     negative rho (up, down):  0.000E+00 2.727E-04

     HUBBARD ENERGY =    0.1166  (Ry)

     total cpu time spent up to now is      272.0 secs

     total energy              =   -2329.54576707 Ry
     estimated scf accuracy    <       0.00342672 Ry

     total magnetization       =     8.00 Bohr mag/cell
     absolute magnetization    =     8.73 Bohr mag/cell

     iteration # 11     ecut=    90.00 Ry     beta= 0.30
     Davidson diagonalization with overlap

---- Real-time Memory Report at c_bands before calling an iterative solver
           394 MiB given to the printing process from OS
           266 MiB allocation reported by mallinfo(arena+hblkhd)
        475138 MiB available memory on the node where the printing process lives
------------------
     ethr =  8.83E-07,  avg # of iterations =  5.8

     =================== HUBBARD OCCUPATIONS ===================
     ------------------------ ATOM  105 ------------------------
     Tr[ns(105)] (up, down, total) =   4.97209  1.43782  6.40992
     Atomic magnetic moment for atom 105 =   3.53427
     SPIN  1
     eigenvalues:
       0.987  0.995  0.996  0.997  0.997
     eigenvectors (columns):
       0.951  0.000 -0.266  0.155 -0.000
       0.293  0.000  0.938 -0.186  0.000
      -0.000  0.504 -0.000 -0.000 -0.863
      -0.096  0.000  0.223  0.970 -0.000
      -0.000  0.863 -0.000  0.000  0.504
     occupation matrix ns (before diag.):
       0.988 -0.003 -0.000  0.001  0.000
      -0.003  0.995 -0.000  0.000  0.000
      -0.000 -0.000  0.997  0.000 -0.001
       0.001  0.000  0.000  0.997 -0.000
       0.000  0.000 -0.001 -0.000  0.995
     SPIN  2
     eigenvalues:
       0.064  0.070  0.232  0.261  0.810
     eigenvectors (columns):
       0.214 -0.000 -0.000  0.123 -0.969
      -0.673  0.000  0.000 -0.700 -0.238
       0.000  0.671 -0.741 -0.000  0.000
       0.708 -0.000  0.000 -0.703  0.068
       0.000  0.741  0.671  0.000 -0.000
     occupation matrix ns (before diag.):
       0.767  0.155 -0.000 -0.066  0.000
       0.155  0.203 -0.000  0.085  0.000
      -0.000 -0.000  0.159  0.000 -0.081
      -0.066  0.085  0.000  0.165 -0.000
       0.000  0.000 -0.081 -0.000  0.143
     ------------------------ ATOM  106 ------------------------
     Tr[ns(106)] (up, down, total) =   4.97209  1.43782  6.40992
     Atomic magnetic moment for atom 106 =   3.53427
     SPIN  1
     eigenvalues:
       0.987  0.995  0.996  0.997  0.997
     eigenvectors (columns):
       0.951  0.000 -0.266  0.155 -0.000
       0.293  0.000  0.938 -0.186  0.000
      -0.000  0.504 -0.000 -0.000 -0.863
      -0.096  0.000  0.223  0.970 -0.000
      -0.000  0.863 -0.000  0.000  0.504
     occupation matrix ns (before diag.):
       0.988 -0.003 -0.000  0.001  0.000
      -0.003  0.995 -0.000  0.000  0.000
      -0.000 -0.000  0.997  0.000 -0.001
       0.001  0.000  0.000  0.997 -0.000
       0.000  0.000 -0.001 -0.000  0.995
     SPIN  2
     eigenvalues:
       0.064  0.070  0.232  0.261  0.810
     eigenvectors (columns):
       0.214 -0.000 -0.000  0.123 -0.969
      -0.673  0.000  0.000 -0.700 -0.238
       0.000  0.671 -0.741 -0.000  0.000
       0.708 -0.000  0.000 -0.703  0.068
       0.000  0.741  0.671  0.000 -0.000
     occupation matrix ns (before diag.):
       0.767  0.155 -0.000 -0.066  0.000
       0.155  0.203 -0.000  0.085  0.000
      -0.000 -0.000  0.159  0.000 -0.081
      -0.066  0.085  0.000  0.165 -0.000
       0.000  0.000 -0.081 -0.000  0.143

     Number of occupied Hubbard levels =   12.8198

     negative rho (up, down):  0.000E+00 2.714E-04

     HUBBARD ENERGY =    0.1136  (Ry)

     total cpu time spent up to now is      298.4 secs

     total energy              =   -2329.54650823 Ry
     estimated scf accuracy    <       0.00238287 Ry

     total magnetization       =     8.00 Bohr mag/cell
     absolute magnetization    =     8.67 Bohr mag/cell

     iteration # 12     ecut=    90.00 Ry     beta= 0.30
     Davidson diagonalization with overlap

---- Real-time Memory Report at c_bands before calling an iterative solver
           394 MiB given to the printing process from OS
           266 MiB allocation reported by mallinfo(arena+hblkhd)
        475145 MiB available memory on the node where the printing process lives
------------------
     ethr =  6.14E-07,  avg # of iterations =  3.6

     =================== HUBBARD OCCUPATIONS ===================
     ------------------------ ATOM  105 ------------------------
     Tr[ns(105)] (up, down, total) =   4.97167  1.44523  6.41690
     Atomic magnetic moment for atom 105 =   3.52644
     SPIN  1
     eigenvalues:
       0.987  0.995  0.996  0.997  0.997
     eigenvectors (columns):
       0.952  0.000 -0.268  0.152 -0.000
       0.292  0.000  0.940 -0.177  0.000
      -0.000  0.507 -0.000 -0.000 -0.862
      -0.095  0.000  0.212  0.973 -0.000
      -0.000  0.862 -0.000  0.000  0.507
     occupation matrix ns (before diag.):
       0.988 -0.003 -0.000  0.001  0.000
      -0.003  0.995 -0.000  0.000  0.000
      -0.000 -0.000  0.997  0.000 -0.001
       0.001  0.000  0.000  0.997 -0.000
       0.000  0.000 -0.001 -0.000  0.995
     SPIN  2
     eigenvalues:
       0.064  0.069  0.231  0.260  0.822
     eigenvectors (columns):
       0.213 -0.000 -0.000  0.122 -0.969
      -0.674  0.000  0.000 -0.699 -0.236
       0.000  0.672 -0.741 -0.000  0.000
       0.707 -0.000  0.000 -0.704  0.066
       0.000  0.741  0.672  0.000 -0.000
     occupation matrix ns (before diag.):
       0.779  0.157 -0.000 -0.066  0.000
[...]
       0.000  0.737  0.676  0.000 -0.000
     occupation matrix ns (before diag.):
       0.813  0.140 -0.000 -0.041  0.000
       0.140  0.192 -0.000  0.090  0.000
      -0.000 -0.000  0.155  0.000 -0.077
      -0.041  0.090  0.000  0.161 -0.000
       0.000  0.000 -0.077 -0.000  0.141
     ------------------------ ATOM  106 ------------------------
     Tr[ns(106)] (up, down, total) =   4.96951  1.46163  6.43114
     Atomic magnetic moment for atom 106 =   3.50788
     SPIN  1
     eigenvalues:
       0.985  0.994  0.996  0.997  0.997
     eigenvectors (columns):
       0.958  0.000 -0.264  0.111 -0.000
       0.276  0.000  0.955 -0.111  0.000
      -0.000  0.531 -0.000 -0.000 -0.847
      -0.076  0.000  0.137  0.988 -0.000
      -0.000  0.847 -0.000  0.000  0.531
     occupation matrix ns (before diag.):
       0.986 -0.003 -0.000  0.001  0.000
      -0.003  0.995 -0.000  0.000  0.000
      -0.000 -0.000  0.996  0.000 -0.001
       0.001  0.000  0.000  0.997 -0.000
       0.000  0.000 -0.001 -0.000  0.995
     SPIN  2
     eigenvalues:
       0.065  0.070  0.226  0.257  0.844
     eigenvectors (columns):
       0.168 -0.000 -0.000  0.124 -0.978
      -0.686  0.000  0.000 -0.698 -0.206
       0.000  0.676 -0.737 -0.000  0.000
       0.708 -0.000  0.000 -0.705  0.032
       0.000  0.737  0.676  0.000 -0.000
     occupation matrix ns (before diag.):
       0.813  0.140 -0.000 -0.041  0.000
       0.140  0.192 -0.000  0.090  0.000
      -0.000 -0.000  0.155  0.000 -0.077
      -0.041  0.090  0.000  0.161 -0.000
       0.000  0.000 -0.077 -0.000  0.141

     Number of occupied Hubbard levels =   12.8623

     negative rho (up, down):  0.000E+00 2.647E-04

     HUBBARD ENERGY =    0.1129  (Ry)

     total cpu time spent up to now is     8660.8 secs

     total energy              =   -2329.54708591 Ry
     estimated scf accuracy    <       0.00000014 Ry

     total magnetization       =     8.00 Bohr mag/cell
     absolute magnetization    =     8.49 Bohr mag/cell

     iteration #  5     ecut=    90.00 Ry     beta= 0.30
     Davidson diagonalization with overlap

---- Real-time Memory Report at c_bands before calling an iterative solver
           407 MiB given to the printing process from OS
           261 MiB allocation reported by mallinfo(arena+hblkhd)
        473655 MiB available memory on the node where the printing process lives
------------------
     ethr =  3.50E-11,  avg # of iterations =  3.2

     =================== HUBBARD OCCUPATIONS ===================
     ------------------------ ATOM  105 ------------------------
     Tr[ns(105)] (up, down, total) =   4.96951  1.46152  6.43103
     Atomic magnetic moment for atom 105 =   3.50799
     SPIN  1
     eigenvalues:
       0.985  0.994  0.996  0.997  0.997
     eigenvectors (columns):
       0.958  0.000 -0.264  0.110 -0.000
       0.276  0.000  0.955 -0.111  0.000
      -0.000  0.531 -0.000 -0.000 -0.847
      -0.076  0.000  0.137  0.988 -0.000
      -0.000  0.847 -0.000  0.000  0.531
     occupation matrix ns (before diag.):
       0.986 -0.003 -0.000  0.001  0.000
      -0.003  0.995 -0.000  0.000  0.000
      -0.000 -0.000  0.996  0.000 -0.001
       0.001  0.000  0.000  0.997 -0.000
       0.000  0.000 -0.001 -0.000  0.995
     SPIN  2
     eigenvalues:
       0.065  0.070  0.226  0.257  0.844
     eigenvectors (columns):
       0.168 -0.000 -0.000  0.124 -0.978
      -0.686  0.000  0.000 -0.698 -0.206
       0.000  0.676 -0.737 -0.000  0.000
       0.708 -0.000  0.000 -0.705  0.032
       0.000  0.737  0.676  0.000 -0.000
     occupation matrix ns (before diag.):
       0.813  0.140 -0.000 -0.041  0.000
       0.140  0.192 -0.000  0.090  0.000
      -0.000 -0.000  0.155  0.000 -0.077
      -0.041  0.090  0.000  0.161 -0.000
       0.000  0.000 -0.077 -0.000  0.141
     ------------------------ ATOM  106 ------------------------
     Tr[ns(106)] (up, down, total) =   4.96951  1.46152  6.43103
     Atomic magnetic moment for atom 106 =   3.50799
     SPIN  1
     eigenvalues:
       0.985  0.994  0.996  0.997  0.997
     eigenvectors (columns):
       0.958  0.000 -0.264  0.110 -0.000
       0.276  0.000  0.955 -0.111  0.000
      -0.000  0.531 -0.000 -0.000 -0.847
      -0.076  0.000  0.137  0.988 -0.000
      -0.000  0.847 -0.000  0.000  0.531
     occupation matrix ns (before diag.):
       0.986 -0.003 -0.000  0.001  0.000
      -0.003  0.995 -0.000  0.000  0.000
      -0.000 -0.000  0.996  0.000 -0.001
       0.001  0.000  0.000  0.997 -0.000
       0.000  0.000 -0.001 -0.000  0.995
     SPIN  2
     eigenvalues:
       0.065  0.070  0.226  0.257  0.844
     eigenvectors (columns):
       0.168 -0.000 -0.000  0.124 -0.978
      -0.686  0.000  0.000 -0.698 -0.206
       0.000  0.676 -0.737 -0.000  0.000
       0.708 -0.000  0.000 -0.705  0.032
       0.000  0.737  0.676  0.000 -0.000
     occupation matrix ns (before diag.):
       0.813  0.140 -0.000 -0.041  0.000
       0.140  0.192 -0.000  0.090  0.000
      -0.000 -0.000  0.155  0.000 -0.077
      -0.041  0.090  0.000  0.161 -0.000
       0.000  0.000 -0.077 -0.000  0.141

     Number of occupied Hubbard levels =   12.8621

     negative rho (up, down):  0.000E+00 2.647E-04

     HUBBARD ENERGY =    0.1129  (Ry)

     total cpu time spent up to now is     8683.3 secs

     total energy              =   -2329.54708593 Ry
     estimated scf accuracy    <       0.00000002 Ry

     total magnetization       =     8.00 Bohr mag/cell
     absolute magnetization    =     8.49 Bohr mag/cell

     iteration #  6     ecut=    90.00 Ry     beta= 0.30
     Davidson diagonalization with overlap

---- Real-time Memory Report at c_bands before calling an iterative solver
           407 MiB given to the printing process from OS
           262 MiB allocation reported by mallinfo(arena+hblkhd)
        473560 MiB available memory on the node where the printing process lives
------------------
     ethr =  5.31E-12,  avg # of iterations =  5.7

     =================== HUBBARD OCCUPATIONS ===================
     ------------------------ ATOM  105 ------------------------
     Tr[ns(105)] (up, down, total) =   4.96951  1.46152  6.43102
     Atomic magnetic moment for atom 105 =   3.50799
     SPIN  1
     eigenvalues:
       0.985  0.994  0.996  0.997  0.997
     eigenvectors (columns):
       0.958  0.000 -0.264  0.110 -0.000
       0.276  0.000  0.955 -0.111  0.000
      -0.000  0.531 -0.000 -0.000 -0.847
      -0.076  0.000  0.137  0.988 -0.000
      -0.000  0.847 -0.000  0.000  0.531
     occupation matrix ns (before diag.):
       0.986 -0.003 -0.000  0.001  0.000
      -0.003  0.995 -0.000  0.000  0.000
      -0.000 -0.000  0.996  0.000 -0.001
       0.001  0.000  0.000  0.997 -0.000
       0.000  0.000 -0.001 -0.000  0.995
     SPIN  2
     eigenvalues:
       0.065  0.070  0.226  0.257  0.844
     eigenvectors (columns):
       0.168 -0.000 -0.000  0.124 -0.978
      -0.686  0.000  0.000 -0.698 -0.206
       0.000  0.676 -0.737 -0.000  0.000
       0.708 -0.000  0.000 -0.705  0.032
       0.000  0.737  0.676  0.000 -0.000
     occupation matrix ns (before diag.):
       0.813  0.140 -0.000 -0.041  0.000
       0.140  0.192 -0.000  0.090  0.000
      -0.000 -0.000  0.155  0.000 -0.077
      -0.041  0.090  0.000  0.161 -0.000
       0.000  0.000 -0.077 -0.000  0.141
     ------------------------ ATOM  106 ------------------------
     Tr[ns(106)] (up, down, total) =   4.96951  1.46152  6.43102
     Atomic magnetic moment for atom 106 =   3.50799
     SPIN  1
     eigenvalues:
       0.985  0.994  0.996  0.997  0.997
     eigenvectors (columns):
       0.958  0.000 -0.264  0.110 -0.000
       0.276  0.000  0.955 -0.111  0.000
      -0.000  0.531 -0.000 -0.000 -0.847
      -0.076  0.000  0.137  0.988 -0.000
      -0.000  0.847 -0.000  0.000  0.531
     occupation matrix ns (before diag.):
       0.986 -0.003 -0.000  0.001  0.000
      -0.003  0.995 -0.000  0.000  0.000
      -0.000 -0.000  0.996  0.000 -0.001
       0.001  0.000  0.000  0.997 -0.000
       0.000  0.000 -0.001 -0.000  0.995
     SPIN  2
     eigenvalues:
       0.065  0.070  0.226  0.257  0.844
     eigenvectors (columns):
       0.168 -0.000 -0.000  0.124 -0.978
      -0.686  0.000  0.000 -0.698 -0.206
       0.000  0.676 -0.737 -0.000  0.000
       0.708 -0.000  0.000 -0.705  0.032
       0.000  0.737  0.676  0.000 -0.000
     occupation matrix ns (before diag.):
       0.813  0.140 -0.000 -0.041  0.000
       0.140  0.192 -0.000  0.090  0.000
      -0.000 -0.000  0.155  0.000 -0.077
      -0.041  0.090  0.000  0.161 -0.000
       0.000  0.000 -0.077 -0.000  0.141

     Number of occupied Hubbard levels =   12.8620

     negative rho (up, down):  0.000E+00 2.647E-04

     HUBBARD ENERGY =    0.1129  (Ry)

     total cpu time spent up to now is     8710.8 secs

     total energy              =   -2329.54708594 Ry
     estimated scf accuracy    <          6.4E-09 Ry

     total magnetization       =     8.00 Bohr mag/cell
     absolute magnetization    =     8.49 Bohr mag/cell

     iteration #  7     ecut=    90.00 Ry     beta= 0.30
     Davidson diagonalization with overlap

---- Real-time Memory Report at c_bands before calling an iterative solver
           407 MiB given to the printing process from OS
           264 MiB allocation reported by mallinfo(arena+hblkhd)
        473468 MiB available memory on the node where the printing process lives
------------------
     ethr =  1.64E-12,  avg # of iterations =  3.9

     =================== HUBBARD OCCUPATIONS ===================
     ------------------------ ATOM  105 ------------------------
     Tr[ns(105)] (up, down, total) =   4.96951  1.46153  6.43104
     Atomic magnetic moment for atom 105 =   3.50798
     SPIN  1
     eigenvalues:
       0.985  0.994  0.996  0.997  0.997
     eigenvectors (columns):
       0.958  0.000 -0.264  0.110 -0.000
       0.276  0.000  0.955 -0.111  0.000
      -0.000  0.531 -0.000 -0.000 -0.847
      -0.076  0.000  0.137  0.988 -0.000
      -0.000  0.847 -0.000  0.000  0.531
     occupation matrix ns (before diag.):
       0.986 -0.003 -0.000  0.001  0.000
      -0.003  0.995 -0.000  0.000  0.000
      -0.000 -0.000  0.996  0.000 -0.001
       0.001  0.000  0.000  0.997 -0.000
       0.000  0.000 -0.001 -0.000  0.995
     SPIN  2
     eigenvalues:
       0.065  0.070  0.226  0.257  0.844
     eigenvectors (columns):
       0.168 -0.000 -0.000  0.124 -0.978
      -0.686  0.000  0.000 -0.698 -0.206
       0.000  0.676 -0.737 -0.000  0.000
       0.708 -0.000  0.000 -0.705  0.032
       0.000  0.737  0.676  0.000 -0.000
     occupation matrix ns (before diag.):
       0.813  0.140 -0.000 -0.041  0.000
       0.140  0.192 -0.000  0.090  0.000
      -0.000 -0.000  0.155  0.000 -0.077
      -0.041  0.090  0.000  0.161 -0.000
       0.000  0.000 -0.077 -0.000  0.141
     ------------------------ ATOM  106 ------------------------
     Tr[ns(106)] (up, down, total) =   4.96951  1.46153  6.43104
     Atomic magnetic moment for atom 106 =   3.50798
     SPIN  1
     eigenvalues:
       0.985  0.994  0.996  0.997  0.997
     eigenvectors (columns):
       0.958  0.000 -0.264  0.110 -0.000
       0.276  0.000  0.955 -0.111  0.000
      -0.000  0.531 -0.000 -0.000 -0.847
      -0.076  0.000  0.137  0.988 -0.000
      -0.000  0.847 -0.000  0.000  0.531
     occupation matrix ns (before diag.):
       0.986 -0.003 -0.000  0.001  0.000
      -0.003  0.995 -0.000  0.000  0.000
      -0.000 -0.000  0.996  0.000 -0.001
       0.001  0.000  0.000  0.997 -0.000
       0.000  0.000 -0.001 -0.000  0.995
     SPIN  2
     eigenvalues:
       0.065  0.070  0.226  0.257  0.844
     eigenvectors (columns):
       0.168 -0.000 -0.000  0.124 -0.978
      -0.686  0.000  0.000 -0.698 -0.206
       0.000  0.676 -0.737 -0.000  0.000
       0.708 -0.000  0.000 -0.705  0.032
       0.000  0.737  0.676  0.000 -0.000
     occupation matrix ns (before diag.):
       0.813  0.140 -0.000 -0.041  0.000
       0.140  0.192 -0.000  0.090  0.000
      -0.000 -0.000  0.155  0.000 -0.077
      -0.041  0.090  0.000  0.161 -0.000
       0.000  0.000 -0.077 -0.000  0.141

     Number of occupied Hubbard levels =   12.8621

     negative rho (up, down):  0.000E+00 2.647E-04

     HUBBARD ENERGY =    0.1129  (Ry)

     total cpu time spent up to now is     8735.3 secs

     total energy              =   -2329.54708594 Ry
     estimated scf accuracy    <          2.5E-09 Ry

     total magnetization       =     8.00 Bohr mag/cell
     absolute magnetization    =     8.49 Bohr mag/cell

     iteration #  8     ecut=    90.00 Ry     beta= 0.30
     Davidson diagonalization with overlap

---- Real-time Memory Report at c_bands before calling an iterative solver
           407 MiB given to the printing process from OS
           265 MiB allocation reported by mallinfo(arena+hblkhd)
        473367 MiB available memory on the node where the printing process lives
------------------
     ethr =  6.49E-13,  avg # of iterations =  4.4

     =================== HUBBARD OCCUPATIONS ===================
     ------------------------ ATOM  105 ------------------------
     Tr[ns(105)] (up, down, total) =   4.96951  1.46153  6.43104
     Atomic magnetic moment for atom 105 =   3.50798
     SPIN  1
     eigenvalues:
       0.985  0.994  0.996  0.997  0.997
     eigenvectors (columns):
       0.958  0.000 -0.264  0.110 -0.000
       0.276  0.000  0.955 -0.111  0.000
      -0.000  0.531 -0.000 -0.000 -0.847
      -0.076  0.000  0.137  0.988 -0.000
      -0.000  0.847 -0.000  0.000  0.531
     occupation matrix ns (before diag.):
       0.986 -0.003 -0.000  0.001  0.000
      -0.003  0.995 -0.000  0.000  0.000
      -0.000 -0.000  0.996  0.000 -0.001
       0.001  0.000  0.000  0.997 -0.000
       0.000  0.000 -0.001 -0.000  0.995
     SPIN  2
     eigenvalues:
       0.065  0.070  0.226  0.257  0.844
     eigenvectors (columns):
       0.168 -0.000 -0.000  0.124 -0.978
      -0.686  0.000  0.000 -0.698 -0.206
       0.000  0.676 -0.737 -0.000  0.000
       0.708 -0.000  0.000 -0.705  0.032
       0.000  0.737  0.676  0.000 -0.000
     occupation matrix ns (before diag.):
       0.813  0.140 -0.000 -0.041  0.000
       0.140  0.192 -0.000  0.090  0.000
      -0.000 -0.000  0.155  0.000 -0.077
      -0.041  0.090  0.000  0.161 -0.000
       0.000  0.000 -0.077 -0.000  0.141
     ------------------------ ATOM  106 ------------------------
     Tr[ns(106)] (up, down, total) =   4.96951  1.46153  6.43104
     Atomic magnetic moment for atom 106 =   3.50798
     SPIN  1
     eigenvalues:
       0.985  0.994  0.996  0.997  0.997
     eigenvectors (columns):
       0.958  0.000 -0.264  0.110 -0.000
       0.276  0.000  0.955 -0.111  0.000
      -0.000  0.531 -0.000 -0.000 -0.847
      -0.076  0.000  0.137  0.988 -0.000
      -0.000  0.847 -0.000  0.000  0.531
     occupation matrix ns (before diag.):
       0.986 -0.003 -0.000  0.001  0.000
      -0.003  0.995 -0.000  0.000  0.000
      -0.000 -0.000  0.996  0.000 -0.001
       0.001  0.000  0.000  0.997 -0.000
       0.000  0.000 -0.001 -0.000  0.995
     SPIN  2
     eigenvalues:
       0.065  0.070  0.226  0.257  0.844
     eigenvectors (columns):
       0.168 -0.000 -0.000  0.124 -0.978
      -0.686  0.000  0.000 -0.698 -0.206
       0.000  0.676 -0.737 -0.000  0.000
       0.708 -0.000  0.000 -0.705  0.032
       0.000  0.737  0.676  0.000 -0.000
     occupation matrix ns (before diag.):
       0.813  0.140 -0.000 -0.041  0.000
       0.140  0.192 -0.000  0.090  0.000
      -0.000 -0.000  0.155  0.000 -0.077
      -0.041  0.090  0.000  0.161 -0.000
       0.000  0.000 -0.077 -0.000  0.141

     Number of occupied Hubbard levels =   12.8621

     negative rho (up, down):  0.000E+00 2.647E-04

     HUBBARD ENERGY =    0.1129  (Ry)

     total cpu time spent up to now is     8757.5 secs

     total energy              =   -2329.54708594 Ry
     estimated scf accuracy    <          2.0E-09 Ry

     total magnetization       =     8.00 Bohr mag/cell
     absolute magnetization    =     8.49 Bohr mag/cell

     iteration #  9     ecut=    90.00 Ry     beta= 0.30
     Davidson diagonalization with overlap

---- Real-time Memory Report at c_bands before calling an iterative solver
           407 MiB given to the printing process from OS
           267 MiB allocation reported by mallinfo(arena+hblkhd)
        473265 MiB available memory on the node where the printing process lives
------------------
     ethr =  5.13E-13,  avg # of iterations =  6.1

     =================== HUBBARD OCCUPATIONS ===================
     ------------------------ ATOM  105 ------------------------
     Tr[ns(105)] (up, down, total) =   4.96951  1.46153  6.43103
     Atomic magnetic moment for atom 105 =   3.50798
     SPIN  1
     eigenvalues:
       0.985  0.994  0.996  0.997  0.997
     eigenvectors (columns):
       0.958  0.000 -0.264  0.110 -0.000
       0.276  0.000  0.955 -0.111  0.000
      -0.000  0.531 -0.000 -0.000 -0.847
      -0.076  0.000  0.137  0.988 -0.000
      -0.000  0.847 -0.000  0.000  0.531
     occupation matrix ns (before diag.):
       0.986 -0.003 -0.000  0.001  0.000
      -0.003  0.995 -0.000  0.000  0.000
      -0.000 -0.000  0.996  0.000 -0.001
       0.001  0.000  0.000  0.997 -0.000
       0.000  0.000 -0.001 -0.000  0.995
     SPIN  2
     eigenvalues:
       0.065  0.070  0.226  0.257  0.844
     eigenvectors (columns):
       0.168 -0.000 -0.000  0.124 -0.978
      -0.686  0.000  0.000 -0.698 -0.206
       0.000  0.676 -0.737 -0.000  0.000
       0.708 -0.000  0.000 -0.705  0.032
       0.000  0.737  0.676  0.000 -0.000
     occupation matrix ns (before diag.):
       0.813  0.140 -0.000 -0.041  0.000
       0.140  0.192 -0.000  0.090  0.000
      -0.000 -0.000  0.155  0.000 -0.077
      -0.041  0.090  0.000  0.161 -0.000
       0.000  0.000 -0.077 -0.000  0.141
     ------------------------ ATOM  106 ------------------------
     Tr[ns(106)] (up, down, total) =   4.96951  1.46153  6.43103
     Atomic magnetic moment for atom 106 =   3.50798
     SPIN  1
     eigenvalues:
       0.985  0.994  0.996  0.997  0.997
     eigenvectors (columns):
       0.958  0.000 -0.264  0.110 -0.000
       0.276  0.000  0.955 -0.111  0.000
      -0.000  0.531 -0.000 -0.000 -0.847
      -0.076  0.000  0.137  0.988 -0.000
      -0.000  0.847 -0.000  0.000  0.531
     occupation matrix ns (before diag.):
       0.986 -0.003 -0.000  0.001  0.000
      -0.003  0.995 -0.000  0.000  0.000
      -0.000 -0.000  0.996  0.000 -0.001
       0.001  0.000  0.000  0.997 -0.000
       0.000  0.000 -0.001 -0.000  0.995
     SPIN  2
     eigenvalues:
       0.065  0.070  0.226  0.257  0.844
     eigenvectors (columns):
       0.168 -0.000 -0.000  0.124 -0.978
      -0.686  0.000  0.000 -0.698 -0.206
       0.000  0.676 -0.737 -0.000  0.000
       0.708 -0.000  0.000 -0.705  0.032
       0.000  0.737  0.676  0.000 -0.000
     occupation matrix ns (before diag.):
       0.813  0.140 -0.000 -0.041  0.000
       0.140  0.192 -0.000  0.090  0.000
      -0.000 -0.000  0.155  0.000 -0.077
      -0.041  0.090  0.000  0.161 -0.000
       0.000  0.000 -0.077 -0.000  0.141

     Number of occupied Hubbard levels =   12.8621

     negative rho (up, down):  0.000E+00 2.647E-04

     HUBBARD ENERGY =    0.1129  (Ry)

     total cpu time spent up to now is     8782.8 secs

     total energy              =   -2329.54708594 Ry
     estimated scf accuracy    <          1.6E-09 Ry

     total magnetization       =     8.00 Bohr mag/cell
     absolute magnetization    =     8.49 Bohr mag/cell

     iteration # 10     ecut=    90.00 Ry     beta= 0.30
     Davidson diagonalization with overlap

---- Real-time Memory Report at c_bands before calling an iterative solver
           407 MiB given to the printing process from OS
           268 MiB allocation reported by mallinfo(arena+hblkhd)
        473175 MiB available memory on the node where the printing process lives
------------------
