
     Program PWSCF v.7.5 starts on 20Jun2026 at 22:21:13 

     This program is part of the open-source Quantum ESPRESSO suite
     for quantum simulation of materials; please cite
         "P. Giannozzi et al., J. Phys.:Condens. Matter 21 395502 (2009);
         "P. Giannozzi et al., J. Phys.:Condens. Matter 29 465901 (2017);
         "P. Giannozzi et al., J. Chem. Phys. 152 154105 (2020);
          URL http://www.quantum-espresso.org", 
     in publications or presentations arising from this work. More details at
     http://www.quantum-espresso.org/quote

     Parallel version (MPI & OpenMP), running on     128 processor cores
     Number of MPI processes:               128
     Threads/MPI process:                     1

     MPI processes distributed on     1 nodes
     503406 MiB available memory on the printing compute node when the environment starts

     Reading input from vc_relax_LS.in

     Current dimensions of program PWSCF are:
     Max number of different atomic species (ntypx) = 10
     Max number of k-points (npk) =  40000
     Max angular momentum in pseudopotentials (lmaxx) =  4
     file C.pbe-n-kjpaw_psl.1.0.0.UPF: wavefunction(s)  2S 2P renormalized
     file Fe.pbe-spn-kjpaw_psl.0.2.1.UPF: wavefunction(s)  3D renormalized
     file O.pbe-n-kjpaw_psl.0.1.UPF: wavefunction(s)  2P renormalized
     Message from routine setup:
     using ibrav=0 with symmetry is DISCOURAGED, use correct ibrav instead

     K-points division:     npool     =       2
     R & G space division:  proc/nbgrp/npool/nimage =      64
     Subspace diagonalization in iterative solution of the eigenvalue problem:
     one sub-group per band group will be used
     custom distributed-memory algorithm (size of sub-group:  2*  2 procs)


     Parallelization info
     --------------------
     sticks:   dense  smooth     PW     G-vecs:    dense   smooth      PW
     Min         503     167     44                70051    13478    1843
     Max         504     168     45                70060    13484    1850
     Sum       32221   10721   2851              4483425   862753  118161

     Using Slab Decomposition



     bravais-lattice index     =            0
     lattice parameter (alat)  =      23.4777  a.u.
     unit-cell volume          =    7480.1878 (a.u.)^3
     number of atoms/cell      =          106
     number of atomic types    =            5
     number of electrons       =       388.00
     number of Kohn-Sham states=          194
     kinetic-energy cutoff     =      90.0000  Ry
     charge density cutoff     =    1080.0000  Ry
     scf convergence threshold =      1.0E-08
     mixing beta               =       0.3000
     number of iterations used =            8  plain     mixing
     energy convergence thresh.=      1.1E-05
     force convergence thresh. =      1.0E-04
     press convergence thresh. =      1.0E-02
     Exchange-correlation= SLA  PW   PBX  PBC
                           (   1   4   3   4   0   0   0)
     nstep                     =          200

     Hubbard projectors: atomic
     Hubbard parameters of DFT+U (Dudarev formulation) in eV:
     U(Fe-3d) =  2.3500

     Internal variables: lda_plus_u =T, lda_plus_u_kind = 0

     Internal variables: orbital_resolved =F, hub_pot_fix =F, apply_U = F

     celldm(1)=  23.477687  celldm(2)=   0.000000  celldm(3)=   0.000000
     celldm(4)=   0.000000  celldm(5)=   0.000000  celldm(6)=   0.000000

     crystal axes: (cart. coord. in units of alat)
               a(1) = (   0.929708  -0.365605  -0.044445 )  
               a(2) = (   0.929708   0.365605  -0.044445 )  
               a(3) = (  -0.432383   0.000000   0.870942 )  

     reciprocal axes: (cart. coord. in units 2 pi/alat)
               b(1) = (  0.550877 -1.367596  0.273485 )  
               b(2) = (  0.550877  1.367596  0.273485 )  
               b(3) = (  0.056224  0.000000  1.176095 )  


     PseudoPot. # 1 for C  read from file:
     ../../pseudo/C.pbe-n-kjpaw_psl.1.0.0.UPF
     MD5 check sum: 5d2aebdfa2cae82b50a7e79e9516da0f
     Pseudo is Projector augmented-wave + core cor, Zval =  4.0
     Generated using "atomic" code by A. Dal Corso  v.5.1
     Shape of augmentation charge: PSQ
     Using radial grid of 1073 points,  4 beta functions with: 
                l(1) =   0
                l(2) =   0
                l(3) =   1
                l(4) =   1
     Q(r) pseudized with 0 coefficients 


     PseudoPot. # 2 for Fe read from file:
     ../../pseudo/Fe.pbe-spn-kjpaw_psl.0.2.1.UPF
     MD5 check sum: e86618425769142926afa95317d90200
     Pseudo is Projector augmented-wave + core cor, Zval = 16.0
     Generated using "atomic" code by A. Dal Corso  v.5.0.99 svn rev. 10869
     Shape of augmentation charge: PSQ
     Using radial grid of 1191 points,  6 beta functions with: 
                l(1) =   0
                l(2) =   0
                l(3) =   1
                l(4) =   1
                l(5) =   2
                l(6) =   2
     Q(r) pseudized with 0 coefficients 


     PseudoPot. # 3 for H  read from file:
     ../../pseudo/H_ONCV_PBE-1.0.oncvpsp.upf
     MD5 check sum: 1790becc920ee074925cf490c71280fe
     Pseudo is Norm-conserving, Zval =  1.0
     Generated using ONCVPSP code by D. R. Hamann
     Using radial grid of 1166 points,  2 beta functions with: 
                l(1) =   0
                l(2) =   0

     PseudoPot. # 4 for N  read from file:
     ../../pseudo/N.oncvpsp.upf
     MD5 check sum: 563d65bfb082928f0c9eb97172f6c357
     Pseudo is Norm-conserving + core correction, Zval =  5.0
     Generated using ONCVPSP code by D. R. Hamann
     Using radial grid of 1058 points,  4 beta functions with: 
                l(1) =   0
                l(2) =   0
                l(3) =   1
                l(4) =   1

     PseudoPot. # 5 for O  read from file:
     ../../pseudo/O.pbe-n-kjpaw_psl.0.1.UPF
     MD5 check sum: 0234752ac141de4415c5fc33072bef88
     Pseudo is Projector augmented-wave + core cor, Zval =  6.0
     Generated using "atomic" code by A. Dal Corso  v.5.0.99 svn rev. 10869
     Shape of augmentation charge: BESSEL
     Using radial grid of 1095 points,  4 beta functions with: 
                l(1) =   0
                l(2) =   0
                l(3) =   1
                l(4) =   1
     Q(r) pseudized with 0 coefficients 


     atomic species   valence    mass     pseudopotential
     C                 4.00    12.01070     C ( 1.00)
     Fe               16.00    55.84500     Fe( 1.00)
     H                 1.00     1.00794     H ( 1.00)
     N                 5.00    14.00670     N ( 1.00)
     O                 6.00    15.99940     O ( 1.00)

      4 Sym. Ops., with inversion, found ( 2 have fractional translation)


                                    s                        frac. trans.

      isym =  1     identity                                     

 cryst.   s( 1) = (     1          0          0      )
                  (     0          1          0      )
                  (     0          0          1      )

 cart.    s( 1) = (  1.0000000 -0.0000000  0.0000000 )
                  (  0.0000000  1.0000000 -0.0000000 )
                  (  0.0000000  0.0000000  1.0000000 )


      isym =  2     180 deg rotation - cart. axis [0,1,0]        

 cryst.   s( 2) = (     0         -1          0      )    f =( -0.0000000 )
                  (    -1          0          0      )       ( -0.0000000 )
                  (     0          0         -1      )       (  0.5000000 )

 cart.    s( 2) = ( -1.0000000  0.0000000 -0.0000000 )    f =( -0.2161913 )
                  ( -0.0000000  1.0000000  0.0000000 )       (  0.0000000 )
                  ( -0.0000000 -0.0000000 -1.0000000 )       (  0.4354710 )


      isym =  3     inversion                                    

 cryst.   s( 3) = (    -1          0          0      )
                  (     0         -1          0      )
                  (     0          0         -1      )

 cart.    s( 3) = ( -1.0000000  0.0000000 -0.0000000 )
                  ( -0.0000000 -1.0000000  0.0000000 )
                  ( -0.0000000 -0.0000000 -1.0000000 )


      isym =  4     inv. 180 deg rotation - cart. axis [0,1,0]   

 cryst.   s( 4) = (     0          1          0      )    f =( -0.0000000 )
                  (     1          0          0      )       ( -0.0000000 )
                  (     0          0          1      )       (  0.5000000 )

 cart.    s( 4) = (  1.0000000 -0.0000000  0.0000000 )    f =( -0.2161913 )
                  (  0.0000000 -1.0000000 -0.0000000 )       ( -0.0000000 )
                  (  0.0000000  0.0000000  1.0000000 )       (  0.4354710 )


   Cartesian axes

     site n.     atom                  positions (alat units)
         1        C      tau(   1) = (   0.4690717  -0.2238046   0.4933126  )
         2        C      tau(   2) = (   0.7417709  -0.2238046   0.7242097  )
         3        C      tau(   3) = (   0.9579623   0.2238046   0.2887387  )
         4        C      tau(   4) = (   0.6852630   0.2238046   0.0578416  )
         5        H      tau(   5) = (   0.4055507  -0.2025371   0.5498563  )
         6        H      tau(   6) = (   0.8052920  -0.2025371   0.6676660  )
         7        H      tau(   7) = (   1.0214833   0.2025371   0.2321950  )
         8        H      tau(   8) = (   0.6217420   0.2025371   0.1143853  )
         9        C      tau(   9) = (   1.3804802   0.0643421   0.3696332  )
        10        C      tau(  10) = (   0.2627451   0.0643421  -0.0230528  )
        11        C      tau(  11) = (   0.0465538  -0.0643421   0.4124182  )
        12        C      tau(  12) = (   1.1642888  -0.0643421   0.8051042  )
        13        H      tau(  13) = (   1.3013226   0.0270150   0.3657821  )
        14        H      tau(  14) = (   0.3419027   0.0270150  -0.0192018  )
        15        H      tau(  15) = (   0.1257114  -0.0270150   0.4162693  )
        16        H      tau(  16) = (   1.0851313  -0.0270150   0.8012531  )
        17        C      tau(  17) = (   1.4624946   0.0393656   0.2969673  )
        18        C      tau(  18) = (   0.1807307   0.0393656   0.0496130  )
        19        C      tau(  19) = (  -0.0354607  -0.0393656   0.4850841  )
        20        C      tau(  20) = (   1.2463033  -0.0393656   0.7324383  )
        21        H      tau(  21) = (   1.4505975  -0.0215320   0.2350338  )
        22        H      tau(  22) = (   0.1926278  -0.0215320   0.1115465  )
        23        H      tau(  23) = (  -0.0235635   0.0215320   0.5470175  )
        24        H      tau(  24) = (   1.2344061   0.0215320   0.6705049  )
        25        C      tau(  25) = (   0.6300948  -0.2712930   0.3489903  )
        26        C      tau(  26) = (   1.0131305  -0.2712930  -0.0024100  )
        27        C      tau(  27) = (   0.7969391   0.2712930   0.4330610  )
        28        C      tau(  28) = (   0.4139035   0.2712930   0.7844613  )
        29        H      tau(  29) = (   0.6955856  -0.2861962   0.2927653  )
        30        H      tau(  30) = (   0.9476397  -0.2861962   0.0538150  )
        31        H      tau(  31) = (   0.7314484   0.2861962   0.4892860  )
        32        H      tau(  32) = (   0.4793942   0.2861962   0.7282363  )
        33        C      tau(  33) = (   0.6438529  -0.1941862   0.4297758  )
        34        C      tau(  34) = (   0.5669897  -0.1941862   0.7877466  )
        35        C      tau(  35) = (   0.7831811   0.1941862   0.3522756  )
        36        C      tau(  36) = (   0.8600443   0.1941862  -0.0056952  )
        37        C      tau(  37) = (   0.7394853  -0.1307424   0.4448091  )
        38        C      tau(  38) = (   0.4713573  -0.1307424   0.7727133  )
        39        C      tau(  39) = (   0.6875487   0.1307424   0.3372423  )
        40        C      tau(  40) = (   0.9556766   0.1307424   0.0093380  )
        41        H      tau(  41) = (   0.8083006  -0.1349572   0.3903294  )
        42        H      tau(  42) = (   0.4025420  -0.1349572   0.8271929  )
        43        H      tau(  43) = (   0.6187333   0.1349572   0.3917219  )
        44        H      tau(  44) = (   1.0244920   0.1349572  -0.0451416  )
        45        C      tau(  45) = (   0.8122278   0.0081587   0.5610287  )
        46        C      tau(  46) = (   0.3986148   0.0081587   0.6564937  )
        47        C      tau(  47) = (   0.6148062  -0.0081587   0.2210226  )
        48        C      tau(  48) = (   1.0284191  -0.0081587   0.1255577  )
        49        C      tau(  49) = (   0.7761644   0.0701534   0.6519442  )
        50        C      tau(  50) = (   0.4346783   0.0701534   0.5655782  )
        51        C      tau(  51) = (   0.6508696  -0.0701534   0.1301072  )
        52        C      tau(  52) = (   0.9923557  -0.0701534   0.2164732  )
        53        C      tau(  53) = (   0.8479341   0.1481729   0.6953123  )
        54        C      tau(  54) = (   0.3629085   0.1481729   0.5222101  )
        55        C      tau(  55) = (   0.5790999  -0.1481729   0.0867390  )
        56        C      tau(  56) = (   1.0641255  -0.1481729   0.2598413  )
        57        H      tau(  57) = (   0.8207205   0.1978109   0.7621677  )
        58        H      tau(  58) = (   0.3901222   0.1978109   0.4553547  )
        59        H      tau(  59) = (   0.6063135  -0.1978109   0.0198837  )
        60        H      tau(  60) = (   1.0369118  -0.1978109   0.3266966  )
        61        C      tau(  61) = (   0.9500736   0.1595290   0.6538419  )
        62        C      tau(  62) = (   0.2607690   0.1595290   0.5636805  )
        63        C      tau(  63) = (   0.4769604  -0.1595290   0.1282095  )
        64        C      tau(  64) = (   1.1662649  -0.1595290   0.2183708  )
        65        H      tau(  65) = (   0.0754253  -0.1464503   0.7310529  )
        66        H      tau(  66) = (   1.1354173  -0.1464503   0.4864695  )
        67        H      tau(  67) = (   1.3516087   0.1464503   0.0509985  )
        68        H      tau(  68) = (   0.2916166   0.1464503   0.2955819  )
        69        C      tau(  69) = (   0.9837328   0.0948960   0.5665122  )
        70        C      tau(  70) = (   0.2271099   0.0948960   0.6510101  )
        71        C      tau(  71) = (   0.4433012  -0.0948960   0.2155391  )
        72        C      tau(  72) = (   1.1999241  -0.0948960   0.1310412  )
        73        C      tau(  73) = (   0.9145754   0.0204161   0.5184240  )
        74        C      tau(  74) = (   0.2962672   0.0204161   0.6990983  )
        75        C      tau(  75) = (   0.5124586  -0.0204161   0.2636273  )
        76        C      tau(  76) = (   1.1307667  -0.0204161   0.0829530  )
        77        H      tau(  77) = (   0.9418605  -0.0262732   0.4497101  )
        78        H      tau(  78) = (   0.2689821  -0.0262732   0.7678123  )
        79        H      tau(  79) = (   0.4851734   0.0262732   0.3323413  )
        80        H      tau(  80) = (   1.1580519   0.0262732   0.0142391  )
        81        N      tau(  81) = (   0.5634522  -0.1718309   0.5026597  )
        82        N      tau(  82) = (   0.6473904  -0.1718309   0.7148627  )
        83        N      tau(  83) = (   0.8635818   0.1718309   0.2793916  )
        84        N      tau(  84) = (   0.7796435   0.1718309   0.0671887  )
        85        N      tau(  85) = (   0.7334729  -0.0639501   0.5262551  )
        86        N      tau(  86) = (   0.4773697  -0.0639501   0.6912673  )
        87        N      tau(  87) = (   0.6935610   0.0639501   0.2557962  )
        88        N      tau(  88) = (   0.9496643   0.0639501   0.0907841  )
        89        N      tau(  89) = (   1.0916982   0.1039624   0.5271320  )
        90        N      tau(  90) = (   0.1191445   0.1039624   0.6903904  )
        91        N      tau(  91) = (   0.3353358  -0.1039624   0.2549194  )
        92        N      tau(  92) = (   1.3078895  -0.1039624   0.0916610  )
        93        O      tau(  93) = (   0.6807585   0.0529612   0.6904869  )
        94        O      tau(  94) = (   0.5300842   0.0529612   0.5270355  )
        95        O      tau(  95) = (   0.7462755  -0.0529612   0.0915644  )
        96        O      tau(  96) = (   0.8969498  -0.0529612   0.2550159  )
        97        O      tau(  97) = (   0.2268382  -0.2020660   0.6217149  )
        98        O      tau(  98) = (   0.9840044  -0.2020660   0.5958075  )
        99        O      tau(  99) = (   1.2001957   0.2020660   0.1603365  )
       100        O      tau( 100) = (   0.4430296   0.2020660   0.1862439  )
       101        O      tau( 101) = (   1.1187441   0.0511548   0.4456218  )
       102        O      tau( 102) = (   0.0920986   0.0511548   0.7719006  )
       103        O      tau( 103) = (   0.3082899  -0.0511548   0.3364295  )
       104        O      tau( 104) = (   1.3349354  -0.0511548   0.0101508  )
       105        Fe     tau( 105) = (   0.6054213  -0.0629620   0.6087612  )
       106        Fe     tau( 106) = (   0.8216127   0.0629620   0.1732902  )

     --------------------------------------------
     DFT-D3 Dispersion Correction (3-body terms):
     --------------------------------------------
       Reference C6 values for interpolation: 

         atom   Coordination number   C6
         H          0.912             6.05
         H          0.000            15.18
         C          0.000            98.23
         C          0.987            86.49
         C          1.998            58.72
         C          2.999            51.56
         C          3.984            36.41
         N          0.000            50.54
         N          0.994            44.25
         N          2.014            39.35
         N          2.990            31.16
         O          0.000            31.01
         O          0.993            25.63
         O          1.989            20.74
         Fe         0.000           982.67
         Fe         1.648           409.99
         Fe         9.138           219.01

       Values used:

         atom   Coordination number  R0_AB[au]  C6      C8
         C          3.215            2.750     49.88   1442.65
         C          3.215            2.750     49.88   1442.65
         C          3.215            2.750     49.88   1442.65
         C          3.215            2.750     49.88   1442.65
         H          1.008            2.062      6.17     74.64
         H          1.008            2.062      6.17     74.64
         H          1.008            2.062      6.17     74.64
         H          1.008            2.062      6.17     74.64
         C          3.138            2.750     50.63   1464.34
         C          3.138            2.750     50.63   1464.34
         C          3.138            2.750     50.63   1464.34
         C          3.138            2.750     50.63   1464.34
         H          1.006            2.062      6.18     74.66
         H          1.006            2.062      6.18     74.66
         H          1.006            2.062      6.18     74.66
         H          1.006            2.062      6.18     74.66
         C          3.145            2.750     50.57   1462.64
         C          3.145            2.750     50.57   1462.64
         C          3.145            2.750     50.57   1462.64
         C          3.145            2.750     50.57   1462.64
         H          1.006            2.062      6.18     74.66
         H          1.006            2.062      6.18     74.66
         H          1.006            2.062      6.18     74.66
         H          1.006            2.062      6.18     74.66
         C          3.169            2.750     50.37   1456.81
         C          3.169            2.750     50.37   1456.81
         C          3.169            2.750     50.37   1456.81
         C          3.169            2.750     50.37   1456.81
         H          1.006            2.062      6.18     74.66
         H          1.006            2.062      6.18     74.66
         H          1.006            2.062      6.18     74.66
         H          1.006            2.062      6.18     74.66
         C          3.347            2.750     47.56   1375.54
         C          3.347            2.750     47.56   1375.54
         C          3.347            2.750     47.56   1375.54
         C          3.347            2.750     47.56   1375.54
         C          3.267            2.750     49.15   1421.37
         C          3.267            2.750     49.15   1421.37
         C          3.267            2.750     49.15   1421.37
         C          3.267            2.750     49.15   1421.37
         H          1.005            2.062      6.18     74.66
         H          1.005            2.062      6.18     74.66
         H          1.005            2.062      6.18     74.66
         H          1.005            2.062      6.18     74.66
         C          3.324            2.750     48.08   1390.44
         C          3.324            2.750     48.08   1390.44
         C          3.324            2.750     48.08   1390.44
         C          3.324            2.750     48.08   1390.44
         C          3.298            2.750     48.61   1405.79
         C          3.298            2.750     48.61   1405.79
         C          3.298            2.750     48.61   1405.79
         C          3.298            2.750     48.61   1405.79
         C          3.152            2.750     50.52   1461.08
         C          3.152            2.750     50.52   1461.08
         C          3.152            2.750     50.52   1461.08
         C          3.152            2.750     50.52   1461.08
         H          1.006            2.062      6.18     74.66
         H          1.006            2.062      6.18     74.66
         H          1.006            2.062      6.18     74.66
         H          1.006            2.062      6.18     74.66
         C          3.165            2.750     50.41   1457.86
         C          3.165            2.750     50.41   1457.86
         C          3.165            2.750     50.41   1457.86
         C          3.165            2.750     50.41   1457.86
         H          1.007            2.062      6.17     74.64
         H          1.007            2.062      6.17     74.64
         H          1.007            2.062      6.17     74.64
         H          1.007            2.062      6.17     74.64
         C          3.227            2.750     49.74   1438.51
         C          3.227            2.750     49.74   1438.51
         C          3.227            2.750     49.74   1438.51
         C          3.227            2.750     49.74   1438.51
         C          3.192            2.750     50.14   1450.07
         C          3.192            2.750     50.14   1450.07
         C          3.192            2.750     50.14   1450.07
         C          3.192            2.750     50.14   1450.07
         H          1.008            2.062      6.17     74.64
         H          1.008            2.062      6.17     74.64
         H          1.008            2.062      6.17     74.64
         H          1.008            2.062      6.17     74.64
         N          3.152            2.478     31.21    688.54
         N          3.152            2.478     31.21    688.54
         N          3.152            2.478     31.21    688.54
         N          3.152            2.478     31.21    688.54
         N          3.195            2.478     31.20    688.24
         N          3.195            2.478     31.20    688.24
         N          3.195            2.478     31.20    688.24
         N          3.195            2.478     31.20    688.24
         N          3.080            2.478     31.25    689.32
         N          3.080            2.478     31.25    689.32
         N          3.080            2.478     31.25    689.32
         N          3.080            2.478     31.25    689.32
         O          1.943            2.345     20.86    421.00
         O          1.943            2.345     20.86    421.00
         O          1.943            2.345     20.86    421.00
         O          1.943            2.345     20.86    421.00
         O          1.076            2.345     25.50    514.53
         O          1.076            2.345     25.50    514.53
         O          1.076            2.345     25.50    514.53
         O          1.076            2.345     25.50    514.53
         O          1.074            2.345     25.50    514.59
         O          1.074            2.345     25.50    514.59
         O          1.074            2.345     25.50    514.59
         O          1.074            2.345     25.50    514.59
         Fe         6.485            3.252    219.01  20487.87
         Fe         6.485            3.252    219.01  20487.87

         Molecular C6 ( Ry / a.u.^6 ) =    326171.19


   Crystallographic axes

     site n.     atom                  positions (cryst. coord.)
         1        C      tau(   1) = (  0.6993890  0.0872403  0.6065555  )
         2        C      tau(   2) = (  0.9127597  0.3006110  0.8934445  )
         3        C      tau(   3) = (  0.3006110  0.9127597  0.3934445  )
         4        C      tau(   4) = (  0.0872403  0.6993890  0.1065555  )
         5        H      tau(   5) = (  0.6507751  0.0967973  0.6694848  )
         6        H      tau(   6) = (  0.9032027  0.3492249  0.8305152  )
         7        H      tau(   7) = (  0.3492249  0.9032027  0.3305152  )
         8        H      tau(   8) = (  0.0967973  0.6507751  0.1694848  )
         9        C      tau(   9) = (  0.7735703  0.9495583  0.5123397  )
        10        C      tau(  10) = (  0.0504417  0.2264297 -0.0123397  )
        11        C      tau(  11) = (  0.2264297  0.0504417  0.4876603  )
        12        C      tau(  12) = (  0.9495583  0.7735703  1.0123397  )
        13        H      tau(  13) = (  0.7799593  0.8538506  0.5033599  )
        14        H      tau(  14) = (  0.1461494  0.2200407 -0.0033599  )
        15        H      tau(  15) = (  0.2200407  0.1461494  0.4966401  )
        16        H      tau(  16) = (  0.8538506  0.7799593  1.0033599  )
        17        C      tau(  17) = (  0.8330349  0.9407074  0.4314890  )
        18        C      tau(  18) = (  0.0592926  0.1669651  0.0685110  )
        19        C      tau(  19) = (  0.1669651  0.0592926  0.5685110  )
        20        C      tau(  20) = (  0.9407074  0.8330349  0.9314890  )
        21        H      tau(  21) = (  0.8928265  0.8339323  0.3579805  )
        22        H      tau(  22) = (  0.1660677  0.1071735  0.1420195  )
        23        H      tau(  23) = (  0.1071735  0.1660677  0.6420195  )
        24        H      tau(  24) = (  0.8339323  0.8928265  0.8579805  )
        25        C      tau(  25) = (  0.8135679  0.0715293  0.4458721  )
        26        C      tau(  26) = (  0.9284707  0.1864321  0.0541279  )
        27        C      tau(  27) = (  0.1864321  0.9284707  0.5541279  )
        28        C      tau(  28) = (  0.0715293  0.8135679  0.9458721  )
        29        H      tau(  29) = (  0.8546500  0.0718485  0.3834283  )
        30        H      tau(  30) = (  0.9281515  0.1453500  0.1165717  )
        31        H      tau(  31) = (  0.1453500  0.9281515  0.6165717  )
        32        H      tau(  32) = (  0.0718485  0.8546500  0.8834283  )
        33        C      tau(  33) = (  0.7377896  0.2066529  0.5416570  )
        34        C      tau(  34) = (  0.7933471  0.2622104  0.9583430  )
        35        C      tau(  35) = (  0.2622104  0.7933471  0.4583430  )
        36        C      tau(  36) = (  0.2066529  0.7377896  0.0416570  )
        37        C      tau(  37) = (  0.7078171  0.3502116  0.5647144  )
        38        C      tau(  38) = (  0.6497884  0.2921829  0.9352856  )
        39        C      tau(  39) = (  0.2921829  0.6497884  0.4352856  )
        40        C      tau(  40) = (  0.3502116  0.7078171  0.0647144  )
        41        H      tau(  41) = (  0.7365906  0.3674569  0.5045103  )
        42        H      tau(  42) = (  0.6325431  0.2634094  0.9954897  )
        43        H      tau(  43) = (  0.2634094  0.6325431  0.4954897  )
        44        H      tau(  44) = (  0.3674569  0.7365906  0.0045103  )
        45        C      tau(  45) = (  0.5897130  0.6120287  0.7054896  )
        46        C      tau(  46) = (  0.3879713  0.4102870  0.7945104  )
        47        C      tau(  47) = (  0.4102870  0.3879713  0.2945104  )
        48        C      tau(  48) = (  0.6120287  0.5897130  0.2054896  )
        49        C      tau(  49) = (  0.5099268  0.7018099  0.8103871  )
        50        C      tau(  50) = (  0.2981901  0.4900732  0.6896129  )
        51        C      tau(  51) = (  0.4900732  0.2981901  0.1896129  )
        52        C      tau(  52) = (  0.7018099  0.5099268  0.3103871  )
        53        C      tau(  53) = (  0.4546246  0.8599058  0.8654274  )
        54        C      tau(  54) = (  0.1400942  0.5453754  0.6345726  )
        55        C      tau(  55) = (  0.5453754  0.1400942  0.1345726  )
        56        C      tau(  56) = (  0.8599058  0.4546246  0.3654274  )
        57        H      tau(  57) = (  0.3900324  0.9310832  0.9425255  )
        58        H      tau(  58) = (  0.0689168  0.6099676  0.5574745  )
        59        H      tau(  59) = (  0.6099676  0.0689168  0.0574745  )
        60        H      tau(  60) = (  0.9310832  0.3900324  0.4425255  )
        61        C      tau(  61) = (  0.4840188  0.9203612  0.8223969  )
        62        C      tau(  62) = (  0.0796388  0.5159812  0.6776031  )
        63        C      tau(  63) = (  0.5159812  0.0796388  0.1776031  )
        64        C      tau(  64) = (  0.9203612  0.4840188  0.3223969  )
        65        H      tau(  65) = (  0.4417671  0.0411974  0.8640281  )
        66        H      tau(  66) = (  0.9588026  0.5582329  0.6359719  )
        67        H      tau(  67) = (  0.5582329  0.9588026  0.1359719  )
        68        H      tau(  68) = (  0.0411974  0.4417671  0.3640281  )
        69        C      tau(  69) = (  0.5670692  0.8266282  0.7215814  )
        70        C      tau(  70) = (  0.1733718  0.4329308  0.7784186  )
        71        C      tau(  71) = (  0.4329308  0.1733718  0.2784186  )
        72        C      tau(  72) = (  0.8266282  0.5670692  0.2215814  )
        73        C      tau(  73) = (  0.6176791  0.6735211  0.6611368  )
        74        C      tau(  74) = (  0.3264789  0.3823209  0.8388632  )
        75        C      tau(  75) = (  0.3823209  0.3264789  0.3388632  )
        76        C      tau(  76) = (  0.6735211  0.6176791  0.1611368  )
        77        H      tau(  77) = (  0.6777698  0.6059074  0.5818568  )
        78        H      tau(  78) = (  0.3940926  0.3222302  0.9181432  )
        79        H      tau(  79) = (  0.3222302  0.3940926  0.4181432  )
        80        H      tau(  80) = (  0.6059074  0.6777698  0.0818568  )
        81        N      tau(  81) = (  0.6828583  0.2128677  0.6228550  )
        82        N      tau(  82) = (  0.7871323  0.3171417  0.8771450  )
        83        N      tau(  83) = (  0.3171417  0.7871323  0.3771450  )
        84        N      tau(  84) = (  0.2128677  0.6828583  0.1228550  )
        85        N      tau(  85) = (  0.6354345  0.4605186  0.6601646  )
        86        N      tau(  86) = (  0.5394814  0.3645655  0.8398354  )
        87        N      tau(  87) = (  0.3645655  0.5394814  0.3398354  )
        88        N      tau(  88) = (  0.4605186  0.6354345  0.1601646  )
        89        N      tau(  89) = (  0.6033759  0.8877330  0.6813368  )
        90        N      tau(  90) = (  0.1122670  0.3966241  0.8186632  )
        91        N      tau(  91) = (  0.3966241  0.1122670  0.3186632  )
        92        N      tau(  92) = (  0.8877330  0.6033759  0.1813368  )
        93        O      tau(  93) = (  0.4914228  0.6362818  0.8503530  )
        94        O      tau(  94) = (  0.3637182  0.5085772  0.6496470  )
        95        O      tau(  95) = (  0.5085772  0.3637182  0.1496470  )
        96        O      tau(  96) = (  0.6362818  0.4914228  0.3503530  )
        97        O      tau(  97) = (  0.5713346  0.0186451  0.7439493  )
        98        O      tau(  98) = (  0.9813549  0.4286654  0.7560507  )
        99        O      tau(  99) = (  0.4286654  0.9813549  0.2560507  )
       100        O      tau( 100) = (  0.0186451  0.5713346  0.2439493  )
       101        O      tau( 101) = (  0.6682026  0.8081206  0.5869937  )
       102        O      tau( 102) = (  0.1918794  0.3317974  0.9130063  )
       103        O      tau( 103) = (  0.3317974  0.1918794  0.4130063  )
       104        O      tau( 104) = (  0.8081206  0.6682026  0.0869937  )
       105        Fe     tau( 105) = (  0.5861066  0.4138934  0.7500000  )
       106        Fe     tau( 106) = (  0.4138934  0.5861066  0.2500000  )

     number of k points=     8
                       cart. coord. in units 2pi/alat
        k(    1) = (   0.0000000   0.0000000   0.0000000), wk =   0.1111111
        k(    2) = (  -0.0281120  -0.0000000  -0.5880473), wk =   0.1111111
        k(    3) = (   0.1836257   0.4558654   0.0911617), wk =   0.4444444
        k(    4) = (   0.1555137   0.4558654  -0.4968856), wk =   0.4444444
        k(    5) = (   0.3672515  -0.0000000   0.1823235), wk =   0.2222222
        k(    6) = (   0.3391395  -0.0000000  -0.4057239), wk =   0.2222222
        k(    7) = (  -0.0000000  -0.9117307  -0.0000000), wk =   0.2222222
        k(    8) = (  -0.0281120  -0.9117307  -0.5880473), wk =   0.2222222

                       cryst. coord.
        k(    1) = (   0.0000000   0.0000000   0.0000000), wk =   0.1111111
        k(    2) = (  -0.0000000  -0.0000000  -0.5000000), wk =   0.1111111
        k(    3) = (   0.0000000   0.3333333  -0.0000000), wk =   0.4444444
        k(    4) = (   0.0000000   0.3333333  -0.5000000), wk =   0.4444444
        k(    5) = (   0.3333333   0.3333333  -0.0000000), wk =   0.2222222
        k(    6) = (   0.3333333   0.3333333  -0.5000000), wk =   0.2222222
        k(    7) = (   0.3333333  -0.3333333   0.0000000), wk =   0.2222222
        k(    8) = (   0.3333333  -0.3333333  -0.5000000), wk =   0.2222222

     Dense  grid:  4483425 G-vectors     FFT dimensions: ( 250, 250, 240)

     Smooth grid:   862753 G-vectors     FFT dimensions: ( 144, 144, 144)

     Dynamical RAM for                 wfc:       4.99 MB

     Dynamical RAM for     wfc (w. buffer):      24.94 MB

     Dynamical RAM for             U proj.:       0.26 MB

     Dynamical RAM for  U proj. (w. buff.):       1.29 MB

     Dynamical RAM for           str. fact:       5.34 MB

     Dynamical RAM for           local pot:       0.00 MB

     Dynamical RAM for          nlocal pot:      17.38 MB

     Dynamical RAM for                qrad:      26.36 MB

     Dynamical RAM for          rho,v,vnew:       8.93 MB

     Dynamical RAM for               rhoin:       2.98 MB

     Dynamical RAM for            rho*nmix:      17.10 MB

     Dynamical RAM for           G-vectors:       4.11 MB

     Dynamical RAM for          h,s,v(r/c):       1.72 MB

     Dynamical RAM for          <psi|beta>:       2.00 MB

     Dynamical RAM for                 psi:       9.98 MB

     Dynamical RAM for                hpsi:       9.98 MB

     Dynamical RAM for                spsi:       9.98 MB

     Dynamical RAM for      wfcinit/wfcrot:      10.84 MB

     Dynamical RAM for           addusdens:     125.60 MB

     Dynamical RAM for          addusforce:     176.03 MB

     Dynamical RAM for         addusstress:     107.70 MB

     Estimated static dynamical RAM per process >     107.27 MB

     Estimated max dynamical RAM per process >     300.41 MB

     Estimated total dynamical RAM >      36.48 GB

     Initial potential from superposition of free atoms

     starting charge     387.9967, renormalised to     388.0000

     HUBBARD ENERGY =    0.4145  (Ry)

     STARTING HUBBARD OCCUPATIONS:

     =================== HUBBARD OCCUPATIONS ===================
     ------------------------ ATOM  105 ------------------------
     Tr[ns(105)] =   6.00000
     eigenvalues:
       0.600  0.600  0.600  0.600  0.600
     eigenvectors (columns):
       1.000  0.000  0.000  0.000  0.000
       0.000  1.000  0.000  0.000  0.000
       0.000  0.000  1.000  0.000  0.000
       0.000  0.000  0.000  1.000  0.000
       0.000  0.000  0.000  0.000  1.000
     occupation matrix ns (before diag.):
       0.600  0.000  0.000  0.000  0.000
       0.000  0.600  0.000  0.000  0.000
       0.000  0.000  0.600  0.000  0.000
       0.000  0.000  0.000  0.600  0.000
       0.000  0.000  0.000  0.000  0.600
     ------------------------ ATOM  106 ------------------------
     Tr[ns(106)] =   6.00000
     eigenvalues:
       0.600  0.600  0.600  0.600  0.600
     eigenvectors (columns):
       1.000  0.000  0.000  0.000  0.000
       0.000  1.000  0.000  0.000  0.000
       0.000  0.000  1.000  0.000  0.000
       0.000  0.000  0.000  1.000  0.000
       0.000  0.000  0.000  0.000  1.000
     occupation matrix ns (before diag.):
       0.600  0.000  0.000  0.000  0.000
       0.000  0.600  0.000  0.000  0.000
       0.000  0.000  0.600  0.000  0.000
       0.000  0.000  0.000  0.600  0.000
       0.000  0.000  0.000  0.000  0.600

     Number of occupied Hubbard levels =   12.0000

     Atomic wfc used for Hubbard projectors are NOT orthogonalized

     Starting wfcs are  346 randomized atomic wfcs
     Checking if some PAW data can be deallocated... 
       PAW data deallocated on   68 nodes for type:  1
       PAW data deallocated on  126 nodes for type:  2
       PAW data deallocated on  116 nodes for type:  5

     total cpu time spent up to now is       16.3 secs

     per-process dynamical memory:   175.8 Mb

     Self-consistent Calculation

     iteration #  1     ecut=    90.00 Ry     beta= 0.30
     Davidson diagonalization with overlap

---- Real-time Memory Report at c_bands before calling an iterative solver
           257 MiB given to the printing process from OS
           171 MiB allocation reported by mallinfo(arena+hblkhd)
        484125 MiB available memory on the node where the printing process lives
------------------
     ethr =  1.00E-02,  avg # of iterations =  2.0

     =================== HUBBARD OCCUPATIONS ===================
     ------------------------ ATOM  105 ------------------------
     Tr[ns(105)] =   7.18403
     eigenvalues:
       0.390  0.447  0.877  0.912  0.965
     eigenvectors (columns):
      -0.000 -0.068  0.998  0.000 -0.008
       0.000  0.778  0.058 -0.000  0.626
      -0.839  0.000 -0.000  0.545  0.000
       0.000  0.625  0.037  0.000 -0.780
       0.545  0.000 -0.000  0.839  0.000
     occupation matrix ns (before diag.):
       0.875  0.022  0.000  0.019  0.000
       0.022  0.651 -0.000 -0.252  0.000
       0.000 -0.000  0.545 -0.000  0.239
       0.019 -0.252 -0.000  0.763 -0.000
       0.000  0.000  0.239 -0.000  0.758
     ------------------------ ATOM  106 ------------------------
     Tr[ns(106)] =   7.18403
     eigenvalues:
       0.390  0.447  0.877  0.912  0.965
     eigenvectors (columns):
      -0.000 -0.068  0.998  0.000 -0.008
       0.000  0.778  0.058 -0.000  0.626
      -0.839  0.000 -0.000  0.545  0.000
       0.000  0.625  0.037  0.000 -0.780
       0.545  0.000 -0.000  0.839  0.000
     occupation matrix ns (before diag.):
       0.875  0.022  0.000  0.019  0.000
       0.022  0.651 -0.000 -0.252  0.000
       0.000 -0.000  0.545 -0.000  0.239
       0.019 -0.252 -0.000  0.763 -0.000
       0.000  0.000  0.239 -0.000  0.758

     Number of occupied Hubbard levels =   14.3681

     HUBBARD ENERGY =    0.2441  (Ry)

     total cpu time spent up to now is       29.4 secs

     total energy              =   -2329.51080523 Ry
     estimated scf accuracy    <      10.65704204 Ry

     iteration #  2     ecut=    90.00 Ry     beta= 0.30
     Davidson diagonalization with overlap

---- Real-time Memory Report at c_bands before calling an iterative solver
           341 MiB given to the printing process from OS
           158 MiB allocation reported by mallinfo(arena+hblkhd)
        482310 MiB available memory on the node where the printing process lives
------------------
     ethr =  2.75E-03,  avg # of iterations =  2.0

     =================== HUBBARD OCCUPATIONS ===================
     ------------------------ ATOM  105 ------------------------
     Tr[ns(105)] =   7.17906
     eigenvalues:
       0.389  0.446  0.877  0.914  0.964
     eigenvectors (columns):
      -0.000 -0.069  0.998  0.000  0.002
       0.000  0.778  0.053 -0.000  0.626
      -0.838  0.000 -0.000  0.546  0.000
       0.000  0.625  0.045  0.000 -0.780
       0.546 -0.000 -0.000  0.838  0.000
     occupation matrix ns (before diag.):
       0.875  0.023  0.000  0.018  0.000
       0.023  0.650 -0.000 -0.252  0.000
       0.000 -0.000  0.546 -0.000  0.240
       0.018 -0.252 -0.000  0.761 -0.000
       0.000  0.000  0.240 -0.000  0.757
     ------------------------ ATOM  106 ------------------------
     Tr[ns(106)] =   7.17906
     eigenvalues:
       0.389  0.446  0.877  0.914  0.964
     eigenvectors (columns):
      -0.000 -0.069  0.998  0.000  0.002
       0.000  0.778  0.053 -0.000  0.626
      -0.838  0.000 -0.000  0.546  0.000
       0.000  0.625  0.045  0.000 -0.780
       0.546 -0.000 -0.000  0.838  0.000
     occupation matrix ns (before diag.):
       0.875  0.023  0.000  0.018  0.000
       0.023  0.650 -0.000 -0.252  0.000
       0.000 -0.000  0.546 -0.000  0.240
       0.018 -0.252 -0.000  0.761 -0.000
       0.000  0.000  0.240 -0.000  0.757

     Number of occupied Hubbard levels =   14.3581

     HUBBARD ENERGY =    0.2440  (Ry)

     total cpu time spent up to now is       39.5 secs

     total energy              =   -2329.22016702 Ry
     estimated scf accuracy    <       2.71396975 Ry

     iteration #  3     ecut=    90.00 Ry     beta= 0.30
     Davidson diagonalization with overlap

---- Real-time Memory Report at c_bands before calling an iterative solver
           342 MiB given to the printing process from OS
           159 MiB allocation reported by mallinfo(arena+hblkhd)
        482203 MiB available memory on the node where the printing process lives
------------------
     ethr =  6.99E-04,  avg # of iterations =  2.4

     =================== HUBBARD OCCUPATIONS ===================
     ------------------------ ATOM  105 ------------------------
     Tr[ns(105)] =   7.26891
     eigenvalues:
       0.407  0.463  0.883  0.917  0.964
     eigenvectors (columns):
      -0.000 -0.069  0.998  0.000 -0.001
       0.000  0.778  0.054 -0.000  0.626
      -0.834  0.000 -0.000  0.552  0.000
       0.000  0.625  0.043  0.000 -0.780
       0.552 -0.000 -0.000  0.834  0.000
     occupation matrix ns (before diag.):
       0.881  0.022  0.000  0.018  0.000
       0.022  0.661 -0.000 -0.244  0.000
       0.000 -0.000  0.563 -0.000  0.235
       0.018 -0.244 -0.000  0.768 -0.000
       0.000  0.000  0.235 -0.000  0.761
     ------------------------ ATOM  106 ------------------------
     Tr[ns(106)] =   7.26891
     eigenvalues:
       0.407  0.463  0.883  0.917  0.964
     eigenvectors (columns):
      -0.000 -0.069  0.998  0.000 -0.001
       0.000  0.778  0.054 -0.000  0.626
      -0.834  0.000 -0.000  0.552  0.000
       0.000  0.625  0.043  0.000 -0.780
       0.552 -0.000 -0.000  0.834  0.000
     occupation matrix ns (before diag.):
       0.881  0.022  0.000  0.018  0.000
       0.022  0.661 -0.000 -0.244  0.000
       0.000 -0.000  0.563 -0.000  0.235
       0.018 -0.244 -0.000  0.768 -0.000
       0.000  0.000  0.235 -0.000  0.761

     Number of occupied Hubbard levels =   14.5378

     HUBBARD ENERGY =    0.2437  (Ry)

     total cpu time spent up to now is       51.9 secs

     total energy              =   -2329.52464882 Ry
     estimated scf accuracy    <       0.43173531 Ry

     iteration #  4     ecut=    90.00 Ry     beta= 0.30
     Davidson diagonalization with overlap

---- Real-time Memory Report at c_bands before calling an iterative solver
           343 MiB given to the printing process from OS
           159 MiB allocation reported by mallinfo(arena+hblkhd)
        481976 MiB available memory on the node where the printing process lives
------------------
     ethr =  1.11E-04,  avg # of iterations =  6.9

     =================== HUBBARD OCCUPATIONS ===================
     ------------------------ ATOM  105 ------------------------
     Tr[ns(105)] =   7.08512
     eigenvalues:
       0.397  0.455  0.853  0.896  0.941
     eigenvectors (columns):
      -0.000 -0.072  0.996  0.000  0.049
       0.000  0.777  0.025 -0.000  0.630
      -0.825  0.000 -0.000  0.565  0.000
       0.000  0.626  0.083  0.000 -0.775
       0.565 -0.000 -0.000  0.825  0.000
     occupation matrix ns (before diag.):
       0.852  0.025  0.000  0.015  0.000
       0.025  0.648 -0.000 -0.237  0.000
       0.000 -0.000  0.556 -0.000  0.233
       0.015 -0.237 -0.000  0.750 -0.000
       0.000  0.000  0.233 -0.000  0.737
     ------------------------ ATOM  106 ------------------------
     Tr[ns(106)] =   7.08512
     eigenvalues:
       0.397  0.455  0.853  0.896  0.941
     eigenvectors (columns):
      -0.000 -0.072  0.996  0.000  0.049
       0.000  0.777  0.025 -0.000  0.630
      -0.825  0.000 -0.000  0.565  0.000
       0.000  0.626  0.083  0.000 -0.775
       0.565  0.000 -0.000  0.825  0.000
     occupation matrix ns (before diag.):
       0.852  0.025  0.000  0.015  0.000
       0.025  0.648 -0.000 -0.237  0.000
       0.000 -0.000  0.556 -0.000  0.233
       0.015 -0.237 -0.000  0.750 -0.000
       0.000  0.000  0.233 -0.000  0.737

     Number of occupied Hubbard levels =   14.1702

     HUBBARD ENERGY =    0.2483  (Ry)

     total cpu time spent up to now is       64.9 secs

     total energy              =   -2329.52340612 Ry
     estimated scf accuracy    <       0.24464590 Ry

     iteration #  5     ecut=    90.00 Ry     beta= 0.30
     Davidson diagonalization with overlap

---- Real-time Memory Report at c_bands before calling an iterative solver
           344 MiB given to the printing process from OS
           160 MiB allocation reported by mallinfo(arena+hblkhd)
        481993 MiB available memory on the node where the printing process lives
------------------
     ethr =  6.31E-05,  avg # of iterations =  6.8

     =================== HUBBARD OCCUPATIONS ===================
     ------------------------ ATOM  105 ------------------------
     Tr[ns(105)] =   7.42700
     eigenvalues:
       0.411  0.467  0.922  0.943  0.970
     eigenvectors (columns):
      -0.000 -0.069  0.997  0.000 -0.037
       0.000  0.777  0.077 -0.000  0.625
      -0.825  0.000 -0.000  0.565  0.000
       0.000  0.626  0.014  0.000 -0.780
       0.565  0.000 -0.000  0.825  0.000
     occupation matrix ns (before diag.):
       0.920  0.023  0.000  0.021  0.000
       0.023  0.666 -0.000 -0.244  0.000
       0.000 -0.000  0.581 -0.000  0.248
       0.021 -0.244 -0.000  0.773 -0.000
       0.000  0.000  0.248 -0.000  0.773
     ------------------------ ATOM  106 ------------------------
     Tr[ns(106)] =   7.42700
     eigenvalues:
       0.411  0.467  0.922  0.943  0.970
     eigenvectors (columns):
      -0.000  0.069 -0.997  0.000 -0.037
       0.000 -0.777 -0.077 -0.000  0.625
      -0.825 -0.000  0.000  0.565  0.000
       0.000 -0.626 -0.014  0.000 -0.780
       0.565  0.000  0.000  0.825  0.000
     occupation matrix ns (before diag.):
       0.920  0.023  0.000  0.021  0.000
       0.023  0.666 -0.000 -0.244  0.000
       0.000 -0.000  0.581 -0.000  0.248
       0.021 -0.244 -0.000  0.773 -0.000
       0.000  0.000  0.248 -0.000  0.773

     Number of occupied Hubbard levels =   14.8540

     HUBBARD ENERGY =    0.2465  (Ry)

     total cpu time spent up to now is       78.5 secs

     total energy              =   -2329.56354591 Ry
     estimated scf accuracy    <       0.20349160 Ry

     iteration #  6     ecut=    90.00 Ry     beta= 0.30
     Davidson diagonalization with overlap

---- Real-time Memory Report at c_bands before calling an iterative solver
           344 MiB given to the printing process from OS
           161 MiB allocation reported by mallinfo(arena+hblkhd)
        481944 MiB available memory on the node where the printing process lives
------------------
     ethr =  5.24E-05,  avg # of iterations =  6.0

     =================== HUBBARD OCCUPATIONS ===================
     ------------------------ ATOM  105 ------------------------
     Tr[ns(105)] =   7.16426
     eigenvalues:
       0.389  0.456  0.873  0.909  0.956
     eigenvectors (columns):
      -0.000 -0.070  0.996  0.000 -0.054
       0.000  0.777  0.088 -0.000  0.623
      -0.825  0.000 -0.000  0.564  0.000
       0.000  0.625  0.002  0.000 -0.781
       0.564  0.000 -0.000  0.825  0.000
     occupation matrix ns (before diag.):
       0.871  0.020  0.000  0.022  0.000
       0.020  0.653 -0.000 -0.243  0.000
       0.000 -0.000  0.554 -0.000  0.242
       0.022 -0.243 -0.000  0.761 -0.000
       0.000  0.000  0.242 -0.000  0.743
     ------------------------ ATOM  106 ------------------------
     Tr[ns(106)] =   7.16426
     eigenvalues:
       0.389  0.456  0.873  0.909  0.956
     eigenvectors (columns):
      -0.000 -0.070  0.996  0.000 -0.054
       0.000  0.777  0.088 -0.000  0.623
      -0.825  0.000 -0.000  0.564  0.000
       0.000  0.625  0.002  0.000 -0.781
       0.564  0.000 -0.000  0.825  0.000
     occupation matrix ns (before diag.):
       0.871  0.020  0.000  0.022  0.000
       0.020  0.653 -0.000 -0.243  0.000
       0.000 -0.000  0.554 -0.000  0.242
       0.022 -0.243 -0.000  0.761 -0.000
       0.000  0.000  0.242 -0.000  0.743

     Number of occupied Hubbard levels =   14.3285

     HUBBARD ENERGY =    0.2470  (Ry)

     total cpu time spent up to now is       90.0 secs

     total energy              =   -2329.57350471 Ry
     estimated scf accuracy    <       0.05954021 Ry

     iteration #  7     ecut=    90.00 Ry     beta= 0.30
     Davidson diagonalization with overlap

---- Real-time Memory Report at c_bands before calling an iterative solver
           345 MiB given to the printing process from OS
           162 MiB allocation reported by mallinfo(arena+hblkhd)
        481823 MiB available memory on the node where the printing process lives
------------------
     ethr =  1.53E-05,  avg # of iterations =  4.2

     =================== HUBBARD OCCUPATIONS ===================
     ------------------------ ATOM  105 ------------------------
     Tr[ns(105)] =   7.18383
     eigenvalues:
       0.391  0.456  0.876  0.911  0.957
     eigenvectors (columns):
      -0.000 -0.070  0.996  0.000 -0.051
       0.000  0.777  0.087 -0.000  0.623
      -0.825  0.000 -0.000  0.566  0.000
       0.000  0.625  0.003  0.000 -0.780
       0.566 -0.000 -0.000  0.825  0.000
     occupation matrix ns (before diag.):
       0.874  0.020  0.000  0.022  0.000
       0.020  0.654 -0.000 -0.244  0.000
       0.000 -0.000  0.558 -0.000  0.242
       0.022 -0.244 -0.000  0.761 -0.000
       0.000  0.000  0.242 -0.000  0.745
     ------------------------ ATOM  106 ------------------------
     Tr[ns(106)] =   7.18383
     eigenvalues:
       0.391  0.456  0.876  0.911  0.957
     eigenvectors (columns):
      -0.000 -0.070  0.996  0.000 -0.051
       0.000  0.777  0.087 -0.000  0.623
      -0.825  0.000 -0.000  0.566  0.000
       0.000  0.625  0.003  0.000 -0.780
       0.566 -0.000 -0.000  0.825  0.000
     occupation matrix ns (before diag.):
       0.874  0.020  0.000  0.022  0.000
       0.020  0.654 -0.000 -0.244  0.000
       0.000 -0.000  0.558 -0.000  0.242
       0.022 -0.244 -0.000  0.761 -0.000
       0.000  0.000  0.242 -0.000  0.745

     Number of occupied Hubbard levels =   14.3677

     HUBBARD ENERGY =    0.2477  (Ry)

     total cpu time spent up to now is      100.6 secs

     total energy              =   -2329.56593401 Ry
     estimated scf accuracy    <       0.02650306 Ry

     iteration #  8     ecut=    90.00 Ry     beta= 0.30
     Davidson diagonalization with overlap

---- Real-time Memory Report at c_bands before calling an iterative solver
           346 MiB given to the printing process from OS
           162 MiB allocation reported by mallinfo(arena+hblkhd)
        481841 MiB available memory on the node where the printing process lives
------------------
     ethr =  6.83E-06,  avg # of iterations =  8.2

     =================== HUBBARD OCCUPATIONS ===================
     ------------------------ ATOM  105 ------------------------
     Tr[ns(105)] =   7.25482
     eigenvalues:
       0.403  0.461  0.886  0.920  0.958
     eigenvectors (columns):
      -0.000 -0.068  0.997  0.000 -0.029
       0.000  0.778  0.071 -0.000  0.625
      -0.823  0.000 -0.000  0.568  0.000
       0.000  0.625  0.020  0.000 -0.780
       0.568 -0.000 -0.000  0.823  0.000
     occupation matrix ns (before diag.):
       0.884  0.021  0.000  0.020  0.000
       0.021  0.657 -0.000 -0.242  0.000
       0.000 -0.000  0.570 -0.000  0.242
       0.020 -0.242 -0.000  0.764 -0.000
       0.000  0.000  0.242 -0.000  0.753
     ------------------------ ATOM  106 ------------------------
     Tr[ns(106)] =   7.25482
     eigenvalues:
       0.403  0.461  0.886  0.920  0.958
     eigenvectors (columns):
      -0.000 -0.068  0.997  0.000 -0.029
       0.000  0.778  0.071 -0.000  0.625
      -0.823  0.000 -0.000  0.568  0.000
       0.000  0.625  0.020  0.000 -0.780
       0.568 -0.000 -0.000  0.823  0.000
     occupation matrix ns (before diag.):
       0.884  0.021  0.000  0.020  0.000
       0.021  0.657 -0.000 -0.242  0.000
       0.000 -0.000  0.570 -0.000  0.242
       0.020 -0.242 -0.000  0.764 -0.000
       0.000  0.000  0.242 -0.000  0.753

     Number of occupied Hubbard levels =   14.5096

     HUBBARD ENERGY =    0.2470  (Ry)

     total cpu time spent up to now is      116.7 secs

     total energy              =   -2329.57177236 Ry
     estimated scf accuracy    <       0.01432986 Ry

     iteration #  9     ecut=    90.00 Ry     beta= 0.30
     Davidson diagonalization with overlap

---- Real-time Memory Report at c_bands before calling an iterative solver
           347 MiB given to the printing process from OS
           163 MiB allocation reported by mallinfo(arena+hblkhd)
        481703 MiB available memory on the node where the printing process lives
------------------
     ethr =  3.69E-06,  avg # of iterations =  6.6

     =================== HUBBARD OCCUPATIONS ===================
     ------------------------ ATOM  105 ------------------------
     Tr[ns(105)] =   7.13444
     eigenvalues:
       0.390  0.451  0.869  0.905  0.953
     eigenvectors (columns):
      -0.000 -0.067  0.997  0.000 -0.036
       0.000  0.777  0.075 -0.000  0.625
      -0.823  0.000 -0.000  0.568  0.000
       0.000  0.626  0.014  0.000 -0.780
       0.568 -0.000 -0.000  0.823  0.000
     occupation matrix ns (before diag.):
       0.867  0.020  0.000  0.020  0.000
       0.020  0.649 -0.000 -0.244  0.000
       0.000 -0.000  0.556 -0.000  0.241
       0.020 -0.244 -0.000  0.756 -0.000
       0.000  0.000  0.241 -0.000  0.739
     ------------------------ ATOM  106 ------------------------
     Tr[ns(106)] =   7.13444
     eigenvalues:
       0.390  0.451  0.869  0.905  0.953
     eigenvectors (columns):
      -0.000 -0.067  0.997  0.000 -0.036
       0.000  0.777  0.075 -0.000  0.625
      -0.823  0.000 -0.000  0.568  0.000
       0.000  0.626  0.014  0.000 -0.780
       0.568 -0.000 -0.000  0.823  0.000
     occupation matrix ns (before diag.):
       0.867  0.020  0.000  0.020  0.000
       0.020  0.649 -0.000 -0.244  0.000
       0.000 -0.000  0.556 -0.000  0.241
       0.020 -0.244 -0.000  0.756 -0.000
       0.000  0.000  0.241 -0.000  0.739

     Number of occupied Hubbard levels =   14.2689

     HUBBARD ENERGY =    0.2476  (Ry)

     total cpu time spent up to now is      130.1 secs

     total energy              =   -2329.57431554 Ry
     estimated scf accuracy    <       0.00919382 Ry

     iteration # 10     ecut=    90.00 Ry     beta= 0.30
     Davidson diagonalization with overlap

---- Real-time Memory Report at c_bands before calling an iterative solver
           347 MiB given to the printing process from OS
           164 MiB allocation reported by mallinfo(arena+hblkhd)
        481655 MiB available memory on the node where the printing process lives
------------------
     ethr =  2.37E-06,  avg # of iterations =  6.0

     =================== HUBBARD OCCUPATIONS ===================
     ------------------------ ATOM  105 ------------------------
     Tr[ns(105)] =   7.19560
     eigenvalues:
       0.393  0.456  0.880  0.913  0.956
     eigenvectors (columns):
      -0.000 -0.067  0.997  0.000 -0.026
       0.000  0.778  0.068 -0.000  0.625
      -0.823  0.000 -0.000  0.569  0.000
       0.000  0.625  0.021  0.000 -0.780
       0.569 -0.000 -0.000  0.823  0.000
     occupation matrix ns (before diag.):
       0.878  0.021  0.000  0.019  0.000
       0.021  0.653 -0.000 -0.243  0.000
       0.000 -0.000  0.561 -0.000  0.243
       0.019 -0.243 -0.000  0.760 -0.000
       0.000  0.000  0.243 -0.000  0.745
     ------------------------ ATOM  106 ------------------------
     Tr[ns(106)] =   7.19560
     eigenvalues:
       0.393  0.456  0.880  0.913  0.956
     eigenvectors (columns):
      -0.000 -0.067  0.997  0.000 -0.026
       0.000  0.778  0.068 -0.000  0.625
      -0.823  0.000 -0.000  0.569  0.000
       0.000  0.625  0.021  0.000 -0.780
       0.569 -0.000 -0.000  0.823  0.000
     occupation matrix ns (before diag.):
       0.878  0.021  0.000  0.019  0.000
       0.021  0.653 -0.000 -0.243  0.000
       0.000 -0.000  0.561 -0.000  0.243
       0.019 -0.243 -0.000  0.760 -0.000
       0.000  0.000  0.243 -0.000  0.745

     Number of occupied Hubbard levels =   14.3912

     HUBBARD ENERGY =    0.2473  (Ry)

     total cpu time spent up to now is      141.8 secs

     total energy              =   -2329.57528191 Ry
     estimated scf accuracy    <       0.00012104 Ry

     iteration # 11     ecut=    90.00 Ry     beta= 0.30
     Davidson diagonalization with overlap

---- Real-time Memory Report at c_bands before calling an iterative solver
           347 MiB given to the printing process from OS
           164 MiB allocation reported by mallinfo(arena+hblkhd)
        481675 MiB available memory on the node where the printing process lives
------------------
     ethr =  3.12E-08,  avg # of iterations =  7.1

     =================== HUBBARD OCCUPATIONS ===================
     ------------------------ ATOM  105 ------------------------
     Tr[ns(105)] =   7.19873
     eigenvalues:
       0.395  0.456  0.879  0.913  0.956
     eigenvectors (columns):
      -0.000 -0.067  0.997  0.000 -0.027
       0.000  0.778  0.069 -0.000  0.625
      -0.823  0.000 -0.000  0.568  0.000
       0.000  0.625  0.021  0.000 -0.780
       0.568 -0.000 -0.000  0.823  0.000
     occupation matrix ns (before diag.):
       0.877  0.021  0.000  0.019  0.000
       0.021  0.653 -0.000 -0.243  0.000
       0.000 -0.000  0.562 -0.000  0.242
       0.019 -0.243 -0.000  0.760 -0.000
       0.000  0.000  0.242 -0.000  0.746
     ------------------------ ATOM  106 ------------------------
     Tr[ns(106)] =   7.19873
     eigenvalues:
       0.395  0.456  0.879  0.913  0.956
     eigenvectors (columns):
      -0.000 -0.067  0.997  0.000 -0.027
       0.000  0.778  0.069 -0.000  0.625
      -0.823  0.000 -0.000  0.568  0.000
       0.000  0.625  0.021  0.000 -0.780
       0.568  0.000 -0.000  0.823  0.000
     occupation matrix ns (before diag.):
       0.877  0.021  0.000  0.019  0.000
       0.021  0.653 -0.000 -0.243  0.000
       0.000 -0.000  0.562 -0.000  0.242
       0.019 -0.243 -0.000  0.760 -0.000
       0.000  0.000  0.242 -0.000  0.746

     Number of occupied Hubbard levels =   14.3975

     HUBBARD ENERGY =    0.2473  (Ry)

     total cpu time spent up to now is      160.1 secs

     total energy              =   -2329.57537198 Ry
     estimated scf accuracy    <       0.00006727 Ry

     iteration # 12     ecut=    90.00 Ry     beta= 0.30
     Davidson diagonalization with overlap

---- Real-time Memory Report at c_bands before calling an iterative solver
           347 MiB given to the printing process from OS
           164 MiB allocation reported by mallinfo(arena+hblkhd)
        481727 MiB available memory on the node where the printing process lives
------------------
     ethr =  1.73E-08,  avg # of iterations =  6.0

     =================== HUBBARD OCCUPATIONS ===================
     ------------------------ ATOM  105 ------------------------
     Tr[ns(105)] =   7.19517
     eigenvalues:
       0.395  0.456  0.878  0.913  0.955
     eigenvectors (columns):
      -0.000 -0.067  0.997  0.000 -0.027
       0.000  0.778  0.069 -0.000  0.625
      -0.823  0.000 -0.000  0.568  0.000
       0.000  0.625  0.021  0.000 -0.780
       0.568 -0.000 -0.000  0.823  0.000
     occupation matrix ns (before diag.):
       0.877  0.021  0.000  0.019  0.000
       0.021  0.653 -0.000 -0.243  0.000
       0.000 -0.000  0.562 -0.000  0.242
       0.019 -0.243 -0.000  0.760 -0.000
       0.000  0.000  0.242 -0.000  0.746
     ------------------------ ATOM  106 ------------------------
     Tr[ns(106)] =   7.19517
     eigenvalues:
       0.395  0.456  0.878  0.913  0.955
     eigenvectors (columns):
      -0.000 -0.067  0.997  0.000 -0.027
       0.000  0.778  0.069 -0.000  0.625
      -0.823  0.000 -0.000  0.568  0.000
       0.000  0.625  0.021  0.000 -0.780
       0.568 -0.000 -0.000  0.823  0.000
     occupation matrix ns (before diag.):
       0.877  0.021  0.000  0.019  0.000
       0.021  0.653 -0.000 -0.243  0.000
       0.000 -0.000  0.562 -0.000  0.242
       0.019 -0.243 -0.000  0.760 -0.000
       0.000  0.000  0.242 -0.000  0.746

     Number of occupied Hubbard levels =   14.3903

     HUBBARD ENERGY =    0.2473  (Ry)

     total cpu time spent up to now is      171.4 secs

     total energy              =   -2329.57538040 Ry
     estimated scf accuracy    <       0.00000972 Ry

     iteration # 13     ecut=    90.00 Ry     beta= 0.30
     Davidson diagonalization with overlap

---- Real-time Memory Report at c_bands before calling an iterative solver
           347 MiB given to the printing process from OS
           164 MiB allocation reported by mallinfo(arena+hblkhd)
        481759 MiB available memory on the node where the printing process lives
------------------
     ethr =  2.50E-09,  avg # of iterations =  5.0

     =================== HUBBARD OCCUPATIONS ===================
     ------------------------ ATOM  105 ------------------------
     Tr[ns(105)] =   7.19451
     eigenvalues:
       0.395  0.456  0.878  0.913  0.955
     eigenvectors (columns):
      -0.000 -0.067  0.997  0.000 -0.027
       0.000  0.778  0.069 -0.000  0.625
      -0.823  0.000 -0.000  0.568  0.000
       0.000  0.625  0.021  0.000 -0.780
       0.568 -0.000 -0.000  0.823  0.000
     occupation matrix ns (before diag.):
       0.877  0.021  0.000  0.019  0.000
       0.021  0.653 -0.000 -0.243  0.000
       0.000 -0.000  0.562 -0.000  0.242
       0.019 -0.243 -0.000  0.760 -0.000
       0.000  0.000  0.242 -0.000  0.746
     ------------------------ ATOM  106 ------------------------
     Tr[ns(106)] =   7.19451
     eigenvalues:
       0.395  0.456  0.878  0.913  0.955
     eigenvectors (columns):
      -0.000 -0.067  0.997  0.000 -0.027
       0.000  0.778  0.069 -0.000  0.625
      -0.823  0.000 -0.000  0.568  0.000
       0.000  0.625  0.021  0.000 -0.780
       0.568 -0.000 -0.000  0.823  0.000
     occupation matrix ns (before diag.):
       0.877  0.021  0.000  0.019  0.000
       0.021  0.653 -0.000 -0.243  0.000
       0.000 -0.000  0.562 -0.000  0.242
       0.019 -0.243 -0.000  0.760 -0.000
       0.000  0.000  0.242 -0.000  0.746

     Number of occupied Hubbard levels =   14.3890

     HUBBARD ENERGY =    0.2473  (Ry)

     total cpu time spent up to now is      184.6 secs

     total energy              =   -2329.57538241 Ry
     estimated scf accuracy    <       0.00000433 Ry

     iteration # 14     ecut=    90.00 Ry     beta= 0.30
     Davidson diagonalization with overlap

---- Real-time Memory Report at c_bands before calling an iterative solver
           347 MiB given to the printing process from OS
           164 MiB allocation reported by mallinfo(arena+hblkhd)
        481781 MiB available memory on the node where the printing process lives
------------------
     ethr =  1.12E-09,  avg # of iterations =  6.0

     =================== HUBBARD OCCUPATIONS ===================
     ------------------------ ATOM  105 ------------------------
     Tr[ns(105)] =   7.19476
     eigenvalues:
       0.395  0.456  0.879  0.913  0.956
     eigenvectors (columns):
      -0.000 -0.067  0.997  0.000 -0.027
       0.000  0.778  0.069 -0.000  0.625
      -0.823  0.000 -0.000  0.568  0.000
       0.000  0.625  0.021  0.000 -0.780
       0.568  0.000 -0.000  0.823  0.000
     occupation matrix ns (before diag.):
       0.877  0.021  0.000  0.019  0.000
       0.021  0.653 -0.000 -0.243  0.000
       0.000 -0.000  0.562 -0.000  0.242
       0.019 -0.243 -0.000  0.760 -0.000
       0.000  0.000  0.242 -0.000  0.746
     ------------------------ ATOM  106 ------------------------
     Tr[ns(106)] =   7.19476
     eigenvalues:
       0.395  0.456  0.879  0.913  0.956
     eigenvectors (columns):
      -0.000 -0.067  0.997  0.000 -0.027
       0.000  0.778  0.069 -0.000  0.625
      -0.823  0.000 -0.000  0.568  0.000
       0.000  0.625  0.021  0.000 -0.780
       0.568 -0.000 -0.000  0.823  0.000
     occupation matrix ns (before diag.):
       0.877  0.021  0.000  0.019  0.000
       0.021  0.653 -0.000 -0.243  0.000
       0.000 -0.000  0.562 -0.000  0.242
       0.019 -0.243 -0.000  0.760 -0.000
       0.000  0.000  0.242 -0.000  0.746

     Number of occupied Hubbard levels =   14.3895

     HUBBARD ENERGY =    0.2473  (Ry)

     total cpu time spent up to now is      198.0 secs

     total energy              =   -2329.57538424 Ry
     estimated scf accuracy    <       0.00000045 Ry

     iteration # 15     ecut=    90.00 Ry     beta= 0.30
     Davidson diagonalization with overlap

---- Real-time Memory Report at c_bands before calling an iterative solver
           347 MiB given to the printing process from OS
           164 MiB allocation reported by mallinfo(arena+hblkhd)
        481802 MiB available memory on the node where the printing process lives
------------------
     ethr =  1.17E-10,  avg # of iterations =  6.6

     =================== HUBBARD OCCUPATIONS ===================
     ------------------------ ATOM  105 ------------------------
     Tr[ns(105)] =   7.19412
     eigenvalues:
       0.395  0.456  0.878  0.913  0.955
     eigenvectors (columns):
      -0.000 -0.067  0.997  0.000 -0.027
       0.000  0.778  0.069 -0.000  0.625
      -0.823  0.000 -0.000  0.568  0.000
       0.000  0.625  0.021  0.000 -0.780
       0.568 -0.000 -0.000  0.823  0.000
     occupation matrix ns (before diag.):
       0.877  0.021  0.000  0.019  0.000
       0.021  0.653 -0.000 -0.243  0.000
       0.000 -0.000  0.562 -0.000  0.242
       0.019 -0.243 -0.000  0.760 -0.000
       0.000  0.000  0.242 -0.000  0.746
     ------------------------ ATOM  106 ------------------------
     Tr[ns(106)] =   7.19412
     eigenvalues:
       0.395  0.456  0.878  0.913  0.955
     eigenvectors (columns):
      -0.000 -0.067  0.997  0.000 -0.027
       0.000  0.778  0.069 -0.000  0.625
      -0.823  0.000 -0.000  0.568  0.000
       0.000  0.625  0.021  0.000 -0.780
       0.568 -0.000 -0.000  0.823  0.000
     occupation matrix ns (before diag.):
       0.877  0.021  0.000  0.019  0.000
       0.021  0.653 -0.000 -0.243  0.000
       0.000 -0.000  0.562 -0.000  0.242
       0.019 -0.243 -0.000  0.760 -0.000
       0.000  0.000  0.242 -0.000  0.746

     Number of occupied Hubbard levels =   14.3882

     HUBBARD ENERGY =    0.2473  (Ry)

     total cpu time spent up to now is      214.0 secs

     total energy              =   -2329.57538458 Ry
     estimated scf accuracy    <       0.00000114 Ry

     iteration # 16     ecut=    90.00 Ry     beta= 0.30
     Davidson diagonalization with overlap

---- Real-time Memory Report at c_bands before calling an iterative solver
           347 MiB given to the printing process from OS
           164 MiB allocation reported by mallinfo(arena+hblkhd)
        481822 MiB available memory on the node where the printing process lives
------------------
     ethr =  1.17E-10,  avg # of iterations =  6.0

     =================== HUBBARD OCCUPATIONS ===================
     ------------------------ ATOM  105 ------------------------
     Tr[ns(105)] =   7.19469
     eigenvalues:
       0.395  0.456  0.879  0.913  0.955
     eigenvectors (columns):
      -0.000 -0.067  0.997  0.000 -0.027
       0.000  0.778  0.069 -0.000  0.625
      -0.823  0.000 -0.000  0.568  0.000
       0.000  0.625  0.021  0.000 -0.780
       0.568 -0.000 -0.000  0.823  0.000
     occupation matrix ns (before diag.):
       0.877  0.021  0.000  0.019  0.000
       0.021  0.653 -0.000 -0.243  0.000
       0.000 -0.000  0.562 -0.000  0.242
       0.019 -0.243 -0.000  0.760 -0.000
       0.000  0.000  0.242 -0.000  0.746
     ------------------------ ATOM  106 ------------------------
     Tr[ns(106)] =   7.19469
     eigenvalues:
       0.395  0.456  0.879  0.913  0.955
     eigenvectors (columns):
      -0.000 -0.067  0.997  0.000 -0.027
       0.000  0.778  0.069 -0.000  0.625
      -0.823  0.000 -0.000  0.568  0.000
       0.000  0.625  0.021  0.000 -0.780
       0.568 -0.000 -0.000  0.823  0.000
     occupation matrix ns (before diag.):
       0.877  0.021  0.000  0.019  0.000
       0.021  0.653 -0.000 -0.243  0.000
       0.000 -0.000  0.562 -0.000  0.242
       0.019 -0.243 -0.000  0.760 -0.000
       0.000  0.000  0.242 -0.000  0.746

     Number of occupied Hubbard levels =   14.3894

     HUBBARD ENERGY =    0.2473  (Ry)

     total cpu time spent up to now is      227.8 secs

     total energy              =   -2329.57538494 Ry
     estimated scf accuracy    <       0.00000003 Ry

     iteration # 17     ecut=    90.00 Ry     beta= 0.30
     Davidson diagonalization with overlap

---- Real-time Memory Report at c_bands before calling an iterative solver
           347 MiB given to the printing process from OS
           164 MiB allocation reported by mallinfo(arena+hblkhd)
        481835 MiB available memory on the node where the printing process lives
------------------
     ethr =  7.32E-12,  avg # of iterations =  5.0

     =================== HUBBARD OCCUPATIONS ===================
     ------------------------ ATOM  105 ------------------------
     Tr[ns(105)] =   7.19461
     eigenvalues:
       0.395  0.456  0.879  0.913  0.955
     eigenvectors (columns):
      -0.000 -0.067  0.997  0.000 -0.027
       0.000  0.778  0.069 -0.000  0.625
      -0.823  0.000 -0.000  0.568  0.000
       0.000  0.625  0.021  0.000 -0.780
       0.568  0.000 -0.000  0.823  0.000
     occupation matrix ns (before diag.):
       0.877  0.021  0.000  0.019  0.000
       0.021  0.653 -0.000 -0.243  0.000
       0.000 -0.000  0.562 -0.000  0.242
       0.019 -0.243 -0.000  0.760 -0.000
       0.000  0.000  0.242 -0.000  0.746
     ------------------------ ATOM  106 ------------------------
     Tr[ns(106)] =   7.19461
     eigenvalues:
       0.395  0.456  0.879  0.913  0.955
     eigenvectors (columns):
      -0.000 -0.067  0.997  0.000 -0.027
       0.000  0.778  0.069 -0.000  0.625
      -0.823  0.000 -0.000  0.568  0.000
       0.000  0.625  0.021  0.000 -0.780
       0.568  0.000 -0.000  0.823  0.000
     occupation matrix ns (before diag.):
       0.877  0.021  0.000  0.019  0.000
       0.021  0.653 -0.000 -0.243  0.000
       0.000 -0.000  0.562 -0.000  0.242
       0.019 -0.243 -0.000  0.760 -0.000
       0.000  0.000  0.242 -0.000  0.746

     Number of occupied Hubbard levels =   14.3892

     HUBBARD ENERGY =    0.2473  (Ry)

     total cpu time spent up to now is      241.8 secs

     total energy              =   -2329.57538505 Ry
     estimated scf accuracy    <       0.00000001 Ry

     iteration # 18     ecut=    90.00 Ry     beta= 0.30
     Davidson diagonalization with overlap

---- Real-time Memory Report at c_bands before calling an iterative solver
           347 MiB given to the printing process from OS
           164 MiB allocation reported by mallinfo(arena+hblkhd)
        481845 MiB available memory on the node where the printing process lives
------------------
     ethr =  2.67E-12,  avg # of iterations =  5.0

     =================== HUBBARD OCCUPATIONS ===================
     ------------------------ ATOM  105 ------------------------
     Tr[ns(105)] =   7.19461
     eigenvalues:
       0.395  0.456  0.879  0.913  0.955
     eigenvectors (columns):
      -0.000 -0.067  0.997  0.000 -0.027
       0.000  0.778  0.069 -0.000  0.625
      -0.823  0.000 -0.000  0.568  0.000
       0.000  0.625  0.021  0.000 -0.781
       0.568 -0.000 -0.000  0.823  0.000
     occupation matrix ns (before diag.):
       0.877  0.021  0.000  0.019  0.000
       0.021  0.653 -0.000 -0.243  0.000
       0.000 -0.000  0.562 -0.000  0.242
       0.019 -0.243 -0.000  0.760 -0.000
       0.000  0.000  0.242 -0.000  0.746
     ------------------------ ATOM  106 ------------------------
     Tr[ns(106)] =   7.19461
     eigenvalues:
       0.395  0.456  0.879  0.913  0.955
     eigenvectors (columns):
       0.000 -0.067  0.997 -0.000 -0.027
      -0.000  0.778  0.069  0.000  0.625
       0.823  0.000 -0.000 -0.568  0.000
      -0.000  0.625  0.021 -0.000 -0.781
      -0.568 -0.000 -0.000 -0.823  0.000
     occupation matrix ns (before diag.):
       0.877  0.021  0.000  0.019  0.000
       0.021  0.653 -0.000 -0.243  0.000
       0.000 -0.000  0.562 -0.000  0.242
       0.019 -0.243 -0.000  0.760 -0.000
       0.000  0.000  0.242 -0.000  0.746

     Number of occupied Hubbard levels =   14.3892

     HUBBARD ENERGY =    0.2473  (Ry)

     total cpu time spent up to now is      253.6 secs

     End of self-consistent calculation

          k = 0.0000 0.0000 0.0000 (107847 PWs)   bands (ev):

   -83.3440 -83.3440 -49.5230 -49.5230 -49.4229 -49.4229 -49.3710 -49.3710
   -23.0612 -23.0593 -23.0568 -23.0552 -18.6809 -18.6641 -18.6129 -18.6116
   -18.6027 -18.6022 -18.5121 -18.5052 -17.5132 -17.4935 -17.4011 -17.3575
   -16.5819 -16.5499 -16.5350 -16.5331 -14.5959 -14.5860 -14.5731 -14.5684
   -13.2596 -13.2199 -13.2165 -13.1824 -12.9359 -12.9328 -12.9056 -12.8849
   -12.3205 -12.3036 -12.2602 -12.2578 -11.6772 -11.6536 -11.6046 -11.5681
   -10.2738 -10.2513 -10.2464 -10.1958  -9.4256  -9.4116  -9.3371  -9.3088
    -9.0279  -9.0148  -9.0056  -8.9980  -8.6877  -8.6099  -8.5819  -8.5792
    -7.5840  -7.5647  -7.5568  -7.5120  -7.1268  -7.0592  -7.0227  -6.9581
    -6.6239  -6.5493  -6.4003  -6.3845  -6.3660  -6.3653  -6.1256  -6.0682
    -5.7332  -5.7219  -5.6789  -5.6736  -5.6395  -5.6368  -5.6171  -5.6096
    -5.2713  -5.2683  -5.2167  -5.1927  -4.9825  -4.9253  -4.9231  -4.8807
    -4.8014  -4.7958  -4.7398  -4.7237  -4.5633  -4.5482  -4.5310  -4.5106
    -4.4449  -4.4299  -4.3893  -4.3892  -4.1896  -4.1775  -4.0098  -3.8304
    -3.8108  -3.8058  -3.7618  -3.7494  -3.7017  -3.6955  -3.5802  -3.5104
    -3.4580  -3.3601  -3.3598  -3.3407  -3.1767  -3.1312  -3.0962  -2.9372
    -2.8937  -2.7735  -2.7061  -2.6764  -2.2883  -2.2747  -2.2445  -2.1894
    -2.1507  -2.1127  -2.1028  -2.0734  -1.9923  -1.9531  -1.9398  -1.9385
    -1.7099  -1.6750  -1.5198  -1.4710  -1.2622  -1.1587  -1.1157  -1.0499
    -0.9455  -0.9330  -0.8277  -0.7160  -0.7015  -0.6613  -0.5473  -0.4759
    -0.3368  -0.2514  -0.2045  -0.2042  -0.1426  -0.0777  -0.0729  -0.0411
    -0.0356   0.0346   0.0517   0.0607   0.0805   0.1031   0.1973   0.2636
     0.5550   0.6015   0.7301   0.7326   0.8081   0.8350   0.8823   0.9249
     1.2977   1.3306   1.6500   1.7599   2.0103   2.0345   2.1067   2.1728
     2.4340   2.5236

     occupation numbers 
     1.0000   1.0000   1.0000   1.0000   1.0000   1.0000   1.0000   1.0000
     1.0000   1.0000   1.0000   1.0000   1.0000   1.0000   1.0000   1.0000
     1.0000   1.0000   1.0000   1.0000   1.0000   1.0000   1.0000   1.0000
     1.0000   1.0000   1.0000   1.0000   1.0000   1.0000   1.0000   1.0000
     1.0000   1.0000   1.0000   1.0000   1.0000   1.0000   1.0000   1.0000
     1.0000   1.0000   1.0000   1.0000   1.0000   1.0000   1.0000   1.0000
     1.0000   1.0000   1.0000   1.0000   1.0000   1.0000   1.0000   1.0000
     1.0000   1.0000   1.0000   1.0000   1.0000   1.0000   1.0000   1.0000
     1.0000   1.0000   1.0000   1.0000   1.0000   1.0000   1.0000   1.0000
     1.0000   1.0000   1.0000   1.0000   1.0000   1.0000   1.0000   1.0000
     1.0000   1.0000   1.0000   1.0000   1.0000   1.0000   1.0000   1.0000
     1.0000   1.0000   1.0000   1.0000   1.0000   1.0000   1.0000   1.0000
     1.0000   1.0000   1.0000   1.0000   1.0000   1.0000   1.0000   1.0000
     1.0000   1.0000   1.0000   1.0000   1.0000   1.0000   1.0000   1.0000
     1.0000   1.0000   1.0000   1.0000   1.0000   1.0000   1.0000   1.0000
     1.0000   1.0000   1.0000   1.0000   1.0000   1.0000   1.0000   1.0000
     1.0000   1.0000   1.0000   1.0000   1.0000   1.0000   1.0000   1.0000
     1.0000   1.0000   1.0000   1.0000   1.0000   1.0000   1.0000   1.0000
     1.0000   1.0000   1.0000   1.0000   1.0000   1.0000   1.0000   1.0000
     1.0000   1.0000   1.0000   1.0000   1.0000   1.0000   1.0000   1.0000
     1.0000   1.0000   1.0000   1.0000   1.0000   1.0000   1.0000   1.0000
     1.0000   1.0000   1.0000   1.0000   1.0000   1.0000   1.0000   1.0000
     1.0000   1.0000   1.0000   1.0000   1.0000   1.0000   1.0000   1.0000
     1.0000   1.0000   1.0000   1.0000   1.0000   1.0000   1.0000   1.0000
     1.0000   1.0000

          k =-0.0281-0.0000-0.5880 (107794 PWs)   bands (ev):

   -83.3440 -83.3440 -49.5230 -49.5230 -49.4229 -49.4229 -49.3710 -49.3710
   -23.0604 -23.0604 -23.0558 -23.0558 -18.6728 -18.6728 -18.6113 -18.6113
   -18.6031 -18.6031 -18.5088 -18.5088 -17.5056 -17.5056 -17.3769 -17.3769
   -16.5685 -16.5685 -16.5316 -16.5316 -14.5853 -14.5853 -14.5764 -14.5764
   -13.2479 -13.2479 -13.1910 -13.1910 -12.9362 -12.9362 -12.8935 -12.8935
   -12.2912 -12.2912 -12.2841 -12.2841 -11.6386 -11.6386 -11.6079 -11.6079
   -10.2643 -10.2643 -10.2196 -10.2196  -9.4198  -9.4198  -9.3233  -9.3233
    -9.0164  -9.0164  -9.0067  -9.0067  -8.6516  -8.6516  -8.5812  -8.5812
    -7.5775  -7.5775  -7.5281  -7.5281  -7.0970  -7.0970  -6.9890  -6.9890
    -6.5559  -6.5559  -6.4146  -6.4146  -6.3753  -6.3753  -6.0757  -6.0757
    -5.7571  -5.7571  -5.6572  -5.6572  -5.6431  -5.6431  -5.6203  -5.6203
    -5.2437  -5.2437  -5.2356  -5.2356  -4.9275  -4.9275  -4.9119  -4.9119
    -4.8051  -4.8051  -4.7420  -4.7420  -4.5543  -4.5543  -4.5047  -4.5047
    -4.4562  -4.4562  -4.3929  -4.3929  -4.1560  -4.1560  -3.9254  -3.9254
    -3.8591  -3.8591  -3.7182  -3.7182  -3.6517  -3.6517  -3.5692  -3.5692
    -3.4357  -3.4357  -3.3655  -3.3655  -3.1142  -3.1142  -3.0411  -3.0411
    -2.8040  -2.8040  -2.7236  -2.7236  -2.2788  -2.2788  -2.1976  -2.1976
    -2.1197  -2.1197  -2.0985  -2.0985  -1.9873  -1.9873  -1.9584  -1.9584
    -1.6918  -1.6918  -1.4388  -1.4388  -1.2539  -1.2539  -1.0947  -1.0947
    -0.9506  -0.9506  -0.6977  -0.6977  -0.6734  -0.6734  -0.5828  -0.5828
    -0.2770  -0.2770  -0.1951  -0.1951  -0.1512  -0.1512  -0.0312  -0.0312
     0.0132   0.0132   0.0702   0.0702   0.1104   0.1104   0.1784   0.1784
     0.6324   0.6324   0.7285   0.7285   0.7793   0.7793   0.9147   0.9147
     1.3095   1.3095   1.7062   1.7062   2.0213   2.0213   2.1368   2.1368
[...]
     atom   55 type  1   force =    -0.00000043   -0.00000005    0.00000030
     atom   56 type  1   force =     0.00000043   -0.00000005   -0.00000030
     atom   57 type  3   force =    -0.00000006    0.00000012    0.00000019
     atom   58 type  3   force =     0.00000006    0.00000012   -0.00000019
     atom   59 type  3   force =     0.00000006   -0.00000012   -0.00000019
     atom   60 type  3   force =    -0.00000006   -0.00000012    0.00000019
     atom   61 type  1   force =     0.00000074   -0.00000025   -0.00000071
     atom   62 type  1   force =    -0.00000074   -0.00000025    0.00000071
     atom   63 type  1   force =    -0.00000074    0.00000025    0.00000071
     atom   64 type  1   force =     0.00000074    0.00000025   -0.00000071
     atom   65 type  3   force =     0.00000006   -0.00000008   -0.00000013
     atom   66 type  3   force =    -0.00000006   -0.00000008    0.00000013
     atom   67 type  3   force =    -0.00000006    0.00000008    0.00000013
     atom   68 type  3   force =     0.00000006    0.00000008   -0.00000013
     atom   69 type  1   force =     0.00000018    0.00000023    0.00000019
     atom   70 type  1   force =    -0.00000018    0.00000023   -0.00000019
     atom   71 type  1   force =    -0.00000018   -0.00000023   -0.00000019
     atom   72 type  1   force =     0.00000018   -0.00000023    0.00000019
     atom   73 type  1   force =     0.00000032    0.00000027    0.00000017
     atom   74 type  1   force =    -0.00000032    0.00000027   -0.00000017
     atom   75 type  1   force =    -0.00000032   -0.00000027   -0.00000017
     atom   76 type  1   force =     0.00000032   -0.00000027    0.00000017
     atom   77 type  3   force =    -0.00000001   -0.00000004    0.00000010
     atom   78 type  3   force =     0.00000001   -0.00000004   -0.00000010
     atom   79 type  3   force =     0.00000001    0.00000004   -0.00000010
     atom   80 type  3   force =    -0.00000001    0.00000004    0.00000010
     atom   81 type  4   force =    -0.00000010   -0.00000101   -0.00000098
     atom   82 type  4   force =     0.00000010   -0.00000101    0.00000098
     atom   83 type  4   force =     0.00000010    0.00000101    0.00000098
     atom   84 type  4   force =    -0.00000010    0.00000101   -0.00000098
     atom   85 type  4   force =     0.00000062   -0.00000051   -0.00000064
     atom   86 type  4   force =    -0.00000062   -0.00000051    0.00000064
     atom   87 type  4   force =    -0.00000062    0.00000051    0.00000064
     atom   88 type  4   force =     0.00000062    0.00000051   -0.00000064
     atom   89 type  4   force =     0.00000045    0.00000101    0.00000113
     atom   90 type  4   force =    -0.00000045    0.00000101   -0.00000113
     atom   91 type  4   force =    -0.00000045   -0.00000101   -0.00000113
     atom   92 type  4   force =     0.00000045   -0.00000101    0.00000113
     atom   93 type  5   force =     0.00000004    0.00000027    0.00000065
     atom   94 type  5   force =    -0.00000004    0.00000027   -0.00000065
     atom   95 type  5   force =    -0.00000004   -0.00000027   -0.00000065
     atom   96 type  5   force =     0.00000004   -0.00000027    0.00000065
     atom   97 type  5   force =    -0.00000019    0.00000004    0.00000003
     atom   98 type  5   force =     0.00000019    0.00000004   -0.00000003
     atom   99 type  5   force =     0.00000019   -0.00000004   -0.00000003
     atom  100 type  5   force =    -0.00000019   -0.00000004    0.00000003
     atom  101 type  5   force =     0.00000035    0.00000049    0.00000048
     atom  102 type  5   force =    -0.00000035    0.00000049   -0.00000048
     atom  103 type  5   force =    -0.00000035   -0.00000049   -0.00000048
     atom  104 type  5   force =     0.00000035   -0.00000049    0.00000048
     atom  105 type  2   force =     0.00000000    0.00000117    0.00000000
     atom  106 type  2   force =    -0.00000000   -0.00000117   -0.00000000

     DFT-D3 dispersion contribution to forces:
     atom    1 type  1   force =    -0.00129195    0.00087120    0.00096865
     atom    2 type  1   force =     0.00129195    0.00087120   -0.00096865
     atom    3 type  1   force =     0.00129195   -0.00087120   -0.00096865
     atom    4 type  1   force =    -0.00129195   -0.00087120    0.00096865
     atom    5 type  3   force =     0.00006366    0.00035856    0.00025366
     atom    6 type  3   force =    -0.00006366    0.00035856   -0.00025366
     atom    7 type  3   force =    -0.00006366   -0.00035856   -0.00025366
     atom    8 type  3   force =     0.00006366   -0.00035856    0.00025366
     atom    9 type  1   force =    -0.00062899    0.00022781   -0.00026015
     atom   10 type  1   force =     0.00062899    0.00022781    0.00026015
     atom   11 type  1   force =     0.00062899   -0.00022781    0.00026015
     atom   12 type  1   force =    -0.00062899   -0.00022781   -0.00026015
     atom   13 type  3   force =    -0.00021082   -0.00009672   -0.00018676
     atom   14 type  3   force =     0.00021082   -0.00009672    0.00018676
     atom   15 type  3   force =     0.00021082    0.00009672    0.00018676
     atom   16 type  3   force =    -0.00021082    0.00009672   -0.00018676
     atom   17 type  1   force =    -0.00030448   -0.00044735   -0.00112091
     atom   18 type  1   force =     0.00030448   -0.00044735    0.00112091
     atom   19 type  1   force =     0.00030448    0.00044735    0.00112091
     atom   20 type  1   force =    -0.00030448    0.00044735   -0.00112091
     atom   21 type  3   force =    -0.00003209   -0.00006628   -0.00019525
     atom   22 type  3   force =     0.00003209   -0.00006628    0.00019525
     atom   23 type  3   force =     0.00003209    0.00006628    0.00019525
     atom   24 type  3   force =    -0.00003209    0.00006628   -0.00019525
     atom   25 type  1   force =     0.00021279    0.00035248   -0.00057899
     atom   26 type  1   force =    -0.00021279    0.00035248    0.00057899
     atom   27 type  1   force =    -0.00021279   -0.00035248    0.00057899
     atom   28 type  1   force =     0.00021279   -0.00035248   -0.00057899
     atom   29 type  3   force =     0.00000973    0.00007020   -0.00000678
     atom   30 type  3   force =    -0.00000973    0.00007020    0.00000678
     atom   31 type  3   force =    -0.00000973   -0.00007020    0.00000678
     atom   32 type  3   force =     0.00000973   -0.00007020   -0.00000678
     atom   33 type  1   force =     0.00136966    0.00051335   -0.00109766
     atom   34 type  1   force =    -0.00136966    0.00051335    0.00109766
     atom   35 type  1   force =    -0.00136966   -0.00051335    0.00109766
     atom   36 type  1   force =     0.00136966   -0.00051335   -0.00109766
     atom   37 type  1   force =     0.00024240    0.00010424   -0.00094287
     atom   38 type  1   force =    -0.00024240    0.00010424    0.00094287
     atom   39 type  1   force =    -0.00024240   -0.00010424    0.00094287
     atom   40 type  1   force =     0.00024240   -0.00010424   -0.00094287
     atom   41 type  3   force =     0.00006836    0.00027460   -0.00015868
     atom   42 type  3   force =    -0.00006836    0.00027460    0.00015868
     atom   43 type  3   force =    -0.00006836   -0.00027460    0.00015868
     atom   44 type  3   force =     0.00006836   -0.00027460   -0.00015868
     atom   45 type  1   force =    -0.00009670   -0.00009907   -0.00080118
     atom   46 type  1   force =     0.00009670   -0.00009907    0.00080118
     atom   47 type  1   force =     0.00009670    0.00009907    0.00080118
     atom   48 type  1   force =    -0.00009670    0.00009907   -0.00080118
     atom   49 type  1   force =    -0.00061856    0.00015947    0.00065506
     atom   50 type  1   force =     0.00061856    0.00015947   -0.00065506
     atom   51 type  1   force =     0.00061856   -0.00015947   -0.00065506
     atom   52 type  1   force =    -0.00061856   -0.00015947    0.00065506
     atom   53 type  1   force =    -0.00011043    0.00048814    0.00065209
     atom   54 type  1   force =     0.00011043    0.00048814   -0.00065209
     atom   55 type  1   force =     0.00011043   -0.00048814   -0.00065209
     atom   56 type  1   force =    -0.00011043   -0.00048814    0.00065209
     atom   57 type  3   force =    -0.00000477    0.00004165    0.00024980
     atom   58 type  3   force =     0.00000477    0.00004165   -0.00024980
     atom   59 type  3   force =     0.00000477   -0.00004165   -0.00024980
     atom   60 type  3   force =    -0.00000477   -0.00004165    0.00024980
     atom   61 type  1   force =     0.00056969    0.00075679    0.00016028
     atom   62 type  1   force =    -0.00056969    0.00075679   -0.00016028
     atom   63 type  1   force =    -0.00056969   -0.00075679   -0.00016028
     atom   64 type  1   force =     0.00056969   -0.00075679    0.00016028
     atom   65 type  3   force =     0.00012937    0.00018189    0.00001703
     atom   66 type  3   force =    -0.00012937    0.00018189   -0.00001703
     atom   67 type  3   force =    -0.00012937   -0.00018189   -0.00001703
     atom   68 type  3   force =     0.00012937   -0.00018189    0.00001703
     atom   69 type  1   force =     0.00044286    0.00037052   -0.00054977
     atom   70 type  1   force =    -0.00044286    0.00037052    0.00054977
     atom   71 type  1   force =    -0.00044286   -0.00037052    0.00054977
     atom   72 type  1   force =     0.00044286   -0.00037052   -0.00054977
     atom   73 type  1   force =    -0.00019791   -0.00016538   -0.00122565
     atom   74 type  1   force =     0.00019791   -0.00016538    0.00122565
     atom   75 type  1   force =     0.00019791    0.00016538    0.00122565
     atom   76 type  1   force =    -0.00019791    0.00016538   -0.00122565
     atom   77 type  3   force =    -0.00013049    0.00009965   -0.00030871
     atom   78 type  3   force =     0.00013049    0.00009965    0.00030871
     atom   79 type  3   force =     0.00013049   -0.00009965    0.00030871
     atom   80 type  3   force =    -0.00013049   -0.00009965   -0.00030871
     atom   81 type  4   force =    -0.00032928    0.00076004    0.00045764
     atom   82 type  4   force =     0.00032928    0.00076004   -0.00045764
     atom   83 type  4   force =     0.00032928   -0.00076004   -0.00045764
     atom   84 type  4   force =    -0.00032928   -0.00076004    0.00045764
     atom   85 type  4   force =    -0.00011011    0.00041576   -0.00008112
     atom   86 type  4   force =     0.00011011    0.00041576    0.00008112
     atom   87 type  4   force =     0.00011011   -0.00041576    0.00008112
     atom   88 type  4   force =    -0.00011011   -0.00041576   -0.00008112
     atom   89 type  4   force =     0.00001993    0.00009658   -0.00015772
     atom   90 type  4   force =    -0.00001993    0.00009658    0.00015772
     atom   91 type  4   force =    -0.00001993   -0.00009658    0.00015772
     atom   92 type  4   force =     0.00001993   -0.00009658   -0.00015772
     atom   93 type  5   force =    -0.00053325   -0.00043819    0.00037843
     atom   94 type  5   force =     0.00053325   -0.00043819   -0.00037843
     atom   95 type  5   force =     0.00053325    0.00043819   -0.00037843
     atom   96 type  5   force =    -0.00053325    0.00043819    0.00037843
     atom   97 type  5   force =     0.00042504    0.00051729    0.00025742
     atom   98 type  5   force =    -0.00042504    0.00051729   -0.00025742
     atom   99 type  5   force =    -0.00042504   -0.00051729   -0.00025742
     atom  100 type  5   force =     0.00042504   -0.00051729    0.00025742
     atom  101 type  5   force =    -0.00006807   -0.00026204   -0.00053406
     atom  102 type  5   force =     0.00006807   -0.00026204    0.00053406
     atom  103 type  5   force =     0.00006807    0.00026204    0.00053406
     atom  104 type  5   force =    -0.00006807    0.00026204   -0.00053406
     atom  105 type  2   force =     0.00000000    0.00011762   -0.00000000
     atom  106 type  2   force =    -0.00000000   -0.00011762    0.00000000

     Total force =     0.000326     Total SCF correction =     0.000007

     DFT-D3 dispersion Force =     0.008680


     Computing stress (Cartesian axis) and pressure

     stres_hub    :    334.39s CPU    377.92s WALL (      28 calls)
     dprojdepsilo :    298.40s CPU    339.76s WALL (    1008 calls)
     dprojdeps1   :      0.31s CPU      0.35s WALL (    1008 calls)
     dprojdeps2   :      2.56s CPU      3.00s WALL (    1008 calls)
     dprojdeps3   :    295.51s CPU    336.41s WALL (    1008 calls)
          total   stress  (Ry/bohr**3)                   (kbar)     P=        0.19
   0.00000137   0.00000000  -0.00000003            0.20        0.00       -0.00
   0.00000000   0.00000128   0.00000000            0.00        0.19        0.00
  -0.00000003   0.00000000   0.00000132           -0.00        0.00        0.19

     kinetic stress (kbar)  11508.35     -0.00    144.14
                                0.00  11816.85     -0.00
                              144.14     -0.00  11711.75

     local   stress (kbar) -21353.24      0.00   5302.93
                                0.00   -517.08     -0.00
                             5302.93     -0.00 -14993.26

     nonloc. stress (kbar)   -173.74     -0.00      6.92
                                0.00   -171.76     -0.00
                                6.92     -0.00   -188.03

     hartree stress (kbar)  10344.48     -0.00  -1795.40
                               -0.00   1966.56     -0.00
                            -1795.40     -0.00   8491.82

     exc-cor stress (kbar)   -889.22     -0.00    -14.01
                               -0.00   -916.56      0.00
                              -14.01      0.00   -907.85

     corecor stress (kbar)  -1758.79      0.00      4.52
                                0.00  -1751.50     -0.00
                                4.52     -0.00  -1753.82

     ewald   stress (kbar)   2345.64     -0.00  -3648.09
                               -0.00 -10401.88      0.00
                            -3648.09      0.00  -2335.79

     hubbard stress (kbar)    -14.43     -0.00     -0.04
                               -0.00    -13.80     -0.00
                               -0.04     -0.00    -13.60

     DFT-D   stress (kbar)     -8.85     -0.00     -0.96
                               -0.00    -10.65     -0.00
                               -0.96     -0.00    -11.02

     XDM     stress (kbar)      0.00      0.00      0.00
                                0.00      0.00      0.00
                                0.00      0.00      0.00

     dft-nl  stress (kbar)      0.00      0.00      0.00
                                0.00      0.00      0.00
                                0.00      0.00      0.00

     TS-vdW  stress (kbar)      0.00      0.00      0.00
                                0.00      0.00      0.00
                                0.00      0.00      0.00

     MDB     stress (kbar)      0.00      0.00      0.00
                                0.00      0.00      0.00
                                0.00      0.00      0.00

     3D-RISM stress (kbar)      0.00      0.00      0.00
                                0.00      0.00      0.00
                                0.00      0.00      0.00


     Writing all to output data dir ./out/aiida_vc_relax_LS.save/ :
     XML data file, charge density, pseudopotentials, collected wavefunctions

     init_run     :     19.87s CPU     22.89s WALL (       2 calls)
     electrons    :   3123.71s CPU   3881.40s WALL (      28 calls)
     update_pot   :     11.96s CPU     15.96s WALL (      26 calls)
     forces       :    219.32s CPU    264.73s WALL (      28 calls)
     force_dftd3  :     14.18s CPU     31.82s WALL (      28 calls)
     stress       :    602.07s CPU    675.07s WALL (      28 calls)
     stres_dftd3  :     14.18s CPU     31.00s WALL (      28 calls)

     Called by init_run:
     wfcinit      :     11.42s CPU     13.54s WALL (       2 calls)
     wfcinit:atom :      0.09s CPU      0.09s WALL (       8 calls)
     wfcinit:wfcr :      8.65s CPU     10.61s WALL (       8 calls)
     potinit      :      1.49s CPU      1.92s WALL (       2 calls)
     hinit0       :      0.88s CPU      1.01s WALL (       2 calls)

     Called by electrons:
     c_bands      :   2562.38s CPU   3141.03s WALL (     299 calls)
     sum_band     :    388.50s CPU    493.73s WALL (     299 calls)
     v_of_rho     :     66.34s CPU     82.91s WALL (     301 calls)
     v_h          :      6.19s CPU      7.77s WALL (     301 calls)
     v_xc         :     70.77s CPU     86.79s WALL (     357 calls)
     newd         :     75.90s CPU     99.70s WALL (     301 calls)
     PAW_pot      :     24.94s CPU     50.49s WALL (     327 calls)
     mix_rho      :      6.28s CPU      7.42s WALL (     299 calls)
     energy_dftd3 :      5.61s CPU     12.43s WALL (      28 calls)

     Called by c_bands:
     init_us_2    :     85.80s CPU     86.16s WALL (    3064 calls)
     cegterg      :   2487.96s CPU   3050.73s WALL (    1196 calls)

     Called by sum_band:
     sum_band:wei :      0.05s CPU      0.05s WALL (     299 calls)
     sum_band:loo :    292.05s CPU    360.59s WALL (     299 calls)
     sum_band:buf :      6.83s CPU      6.95s WALL (    1196 calls)
     sum_band:ini :     32.95s CPU     33.01s WALL (    1196 calls)
     sum_band:cal :     82.54s CPU     89.98s WALL (    1300 calls)
     sum_band:bec :      0.74s CPU      0.86s WALL (    1300 calls)
     addusdens    :     79.10s CPU    109.30s WALL (     299 calls)
                                        0.00s GPU  (     299 calls)
     addusd:skk   :      8.17s CPU      8.36s WALL (     897 calls)
                                        0.00s GPU  (     897 calls)

     Called by *egterg:
     cdiaghg      :    372.13s CPU    504.33s WALL (    7246 calls)
     cegterg:over :    139.16s CPU    152.17s WALL (    6258 calls)
     cegterg:upda :    113.62s CPU    124.27s WALL (    6258 calls)
     cegterg:last :    229.50s CPU    259.22s WALL (    2722 calls)
     cdiaghg:chol :      6.54s CPU      8.66s WALL (    7246 calls)
     cdiaghg:inve :      4.35s CPU      6.52s WALL (    7246 calls)
     cdiaghg:para :     53.07s CPU     72.90s WALL (   14492 calls)
     h_psi        :   1363.92s CPU   1732.40s WALL (    7462 calls)
     s_psi        :    239.13s CPU    240.82s WALL (    7798 calls)
     g_psi        :      4.77s CPU      5.03s WALL (    6258 calls)

     Called by h_psi:
     h_psi:calbec :    225.73s CPU    246.40s WALL (    7462 calls)
     vloc_psi     :    889.53s CPU   1231.21s WALL (    7462 calls)
                                        0.00s GPU  (    7462 calls)
     add_vuspsi   :    209.36s CPU    210.30s WALL (    7462 calls)
     vhpsi        :     25.66s CPU     28.81s WALL (    7462 calls)

     General routines
     calbec       :    837.41s CPU    935.86s WALL (  590748 calls)
     fft          :     42.13s CPU     60.20s WALL (    4609 calls)
     ffts         :      2.06s CPU      2.79s WALL (     600 calls)
     fftw         :   1007.55s CPU   1390.42s WALL ( 1477246 calls)
     interpolate  :      4.91s CPU      6.17s WALL (     301 calls)

     Parallel routines

     Hubbard U routines
     new_ns       :      8.31s CPU      8.64s WALL (     299 calls)
     vhpsi        :     25.66s CPU     28.81s WALL (    7462 calls)
     force_hub    :    116.60s CPU    134.91s WALL (      28 calls)
     stres_hub    :    334.39s CPU    377.92s WALL (      28 calls)

     PAW routines
     PAW_pot      :     24.94s CPU     50.49s WALL (     327 calls)
     PAW_symme    :      0.36s CPU      0.53s WALL (     626 calls)

     PWSCF        :      1h 7m CPU      1h22m WALL


   This run was terminated on:  23:43:20  20Jun2026            

=------------------------------------------------------------------------------=
   JOB DONE.
=------------------------------------------------------------------------------=
