✅ ORCA running with approved resources:
   Tasks: 8/16
   Nodes: 1/1
   Scratch: /tmp/orca_alan_1443

                                 *****************
                                 * O   R   C   A *
                                 *****************

                                            #,                                       
                                            ###                                      
                                            ####                                     
                                            #####                                    
                                            ######                                   
                                           ########,                                 
                                     ,,################,,,,,                         
                               ,,#################################,,                 
                          ,,##########################################,,             
                       ,#########################################, ''#####,          
                    ,#############################################,,   '####,        
                  ,##################################################,,,,####,       
                ,###########''''           ''''###############################       
              ,#####''   ,,,,##########,,,,          '''####'''          '####       
            ,##' ,,,,###########################,,,                        '##       
           ' ,,###''''                  '''############,,,                           
         ,,##''                                '''############,,,,        ,,,,,,###''
      ,#''                                            '''#######################'''  
     '                                                          ''''####''''         
             ,#######,   #######,   ,#######,      ##                                
            ,#'     '#,  ##    ##  ,#'     '#,    #''#        ,####,   ,####,        
            ##       ##  ##   ,#'  ##            #'  '#       #'       #'  '#        
            ##       ##  #######   ##           ,######,      #####,   #    #        
            '#,     ,#'  ##    ##  '#,     ,#' ,#      #,     #,   #   #,  ,#        
             '#######'   ##     ##  '#######'  #'      '#     '####' # '####'        



                #########################################################
                #                        -***-                          #
                #          Department of theory and spectroscopy        #
                #                                                       #
                #                      Frank Neese                      #
                #                                                       #
                #     Directorship, Architecture, Infrastructure        #
                #                    SHARK, DRIVERS                     #
                #        Core code/Algorithms in most modules           #
                #                                                       #
                #        Max Planck Institute fuer Kohlenforschung      #
                #                Kaiser Wilhelm Platz 1                 #
                #                 D-45470 Muelheim/Ruhr                 #
                #                      Germany                          #
                #                                                       #
                #                  All rights reserved                  #
                #                        -***-                          #
                #########################################################


                         Program Version 6.0.1  -  RELEASE   -


 With contributions from (in alphabetic order):
[Max-Planck-Institut fuer Kohlenforschung]                               
  Daniel Aravena         : Magnetic Suceptibility                        
  Michael Atanasov       : Ab Initio Ligand Field Theory (pilot matlab implementation)
  Alexander A. Auer      : GIAO ZORA, VPT2 properties, NMR spectrum      
  Ute Becker             : All parallelization in ORCA, NUMFREQ, NUMCALC 
  Giovanni Bistoni       : ED, misc. LED, open-shell LED, HFLD           
  Martin Brehm           : Molecular dynamics                            
  Dmytro Bykov           : pre 5.0 version of the SCF Hessian            
  Marcos Casanova-Páez   : Triplet and SCS-CIS(D). UHF-(DLPNO)-IP/EA/STEOM-CCSD. UHF-CVS-IP/STEOM-CCSD   
  Vijay G. Chilkuri      : MRCI spin determinant printing, contributions to CSF-ICE 
  Pauline Colinet        : FMM embedding                                 
  Dipayan Datta          : RHF DLPNO-CCSD density                        
  Achintya Kumar Dutta   : EOM-CC, STEOM-CC                              
  Nicolas Foglia         : Exact transition moments, OPA infrastructure, MCD improvements    
  Dmitry Ganyushin       : Spin-Orbit,Spin-Spin,Magnetic field MRCI      
  Miquel Garcia-Rates    : C-PCM and meta-GGA Hessian, CCSD/C-PCM, Gaussian charge scheme 
  Tiago L. C. Gouveia    : GS-ROHF, GS-ROCIS                             
  Yang Guo               : DLPNO-NEVPT2, F12-NEVPT2, CIM, IAO-localization        
  Andreas Hansen         : Spin unrestricted coupled pair/coupled cluster methods 
  Ingolf Harden          : AUTO-CI MPn and infrastructure                
  Benjamin Helmich-Paris : MC-RPA, TRAH-(SCF,CASSCF), AVAS, COSX integrals, SCF dyn. polar. 
  Lee Huntington         : MR-EOM, pCC                                   
  Robert Izsak           : Overlap fitted RIJCOSX, COSX-SCS-MP3, EOM     
  Riya Kayal             : Wick's Theorem for AUTO-CI, AUTO-CI UHF-CCSDT 
  Emily Kempfer          : AUTO-CI, RHF CISDT and CCSDT                  
  Christian Kollmar      : KDIIS, OOCD, Brueckner-CCSD(T), CCSD density, CASPT2, CASPT2-K, improved NEVPT2 
  Axel Koslowski         : Symmetry handling                             
  Simone Kossmann        : meta-GGA functionals, TD-DFT gradient, OOMP2, (MP2 Hessian; deprecated post 5.0) 
  Lucas Lang             : DCDCAS                                        
  Marvin Lechner         : AUTO-CI (C++ implementation), FIC-MRCC        
  Spencer Leger          : CASSCF response                               
  Dagmar Lenk            : GEPOL surface, SMD, ORCA-2-JSON               
  Dimitrios Liakos       : Extrapolation schemes; Compound Job, initial MDCI parallelization 
  Dimitrios Manganas     : Further ROCIS development; embedding schemes. LFT, Crystal Embedding 
  Dimitrios Pantazis     : SARC Basis sets                               
  Anastasios Papadopoulos: AUTO-CI, single reference methods and gradients 
  Taras Petrenko         : pre 6.0 DFT Hessian and TD-DFT gradient, (ASA, deprecated), ECA, 1-Electron XAS/XES, NRVS 
  Peter Pinski           : DLPNO-MP2, DLPNO-MP2 Gradient                 
  Christoph Reimann      : Effective Core Potentials                     
  Marius Retegan         : Local ZFS, SOC                                
  Christoph Riplinger    : Optimizer, TS searches, QM/MM, DLPNO-CCSD(T), (RO)-DLPNO pert. Triples 
  Michael Roemelt        : Original ROCIS implementation                 
  Masaaki Saitow         : Open-shell DLPNO-CCSD energy and density      
  Barbara Sandhoefer     : DKH picture change effects                    
  Kantharuban Sivalingam : CASSCF convergence/infrastructure, NEVPT2 and variants, FIC-MRCI 
  Bernardo de Souza      : ESD, SOC TD-DFT                               
  Georgi L. Stoychev     : AutoAux, RI-MP2 NMR, DLPNO-MP2 response, X2C  
  Van Anh Tran           : RI-MP2 g-tensors                              
  Willem Van den Heuvel  : Paramagnetic NMR                              
  Zikuan Wang            : NOTCH, Electric field optimization            
  Frank Wennmohs         : Technical directorship and infrastructure     
  Hang Xu                : AUTO-CI-Response properties                   
                                                                         
[FACCTs GmbH]                                                            
  Markus Bursch, Miquel Garcia-Rates, Christoph Riplinger, Bernardo de Souza, Georgi L. Stoychev 
                                                                 
  APM, Basis sets (HGBS, AHGBS, def-TZVP (Ac-Lr), def2-XVPD (La-Lu)), CI-OPT, improved COSX, DLPNO-Multilevel,           
  DOCKER, DRACO, updates on ESD, GOAT, IRC, LR-CPCM, MBIS, meta-GGA TD-DFT gradient, ML-optimized integration grids, 
  MM, NACMEs, nearIR, NEB, NEB-TS, NL-DFT gradient (VV10), 2- and 3-layer-ONIOM, interface openCOSMO-RS, QMMM,   
  Crystal-QMMM, SF, symmetry and pop. for TD-DFT, r2SCAN hybrids, SOLVATOR                                   
                                                                         
[Other institutions]                                                     
  V. Asgeirsson          : NEB                                           
  Christoph Bannwarth    : sTDA-DFT, sTD-DFT, PBEh-3c, B97-3c, D3        
  Sebastian Ehlert       : rSCAN, r2SCAN, r2SCAN-3c, D4, dhf basis sets  
  Marvin Friede          : D4 for Fr, Ra, Ac-Lr                          
  Lars Goerigk           : TD-DFT with DH, B97 family of functionals     
  Stefan Grimme          : VdW corrections, initial TS optimization, DFT functionals, gCP, sTDA/sTD-DF 
  Waldemar Hujo          : DFT-NL                                        
  H. Jonsson             : NEB                                           
  Holger Kruse           : gCP                                           
  Marcel Mueller         : wB97X-3c, vDZP basis set                      
  Hagen Neugebauer       : wr2SCAN                                       
  Tobias Risthaus        : range-separated hybrid DFT                    
  Lukas Wittmann         : regularized MP2, r2SCAN double-hybrids, wr2SCAN        
                                                                         
We gratefully acknowledge several colleagues who have allowed us to      
interface, adapt or use parts of their codes:                            
  Ed Valeev, F. Pavosevic, A. Kumar             : LibInt (2-el integral package), F12 methods 
  Garnet Chan, S. Sharma, J. Yang, R. Olivares  : DMRG                   
  Ulf Ekstrom                                   : XCFun DFT Library      
  Mihaly Kallay                                 : mrcc  (arbitrary order and MRCC methods)
  Frank Weinhold                                : gennbo (NPA and NBO analysis)           
  Simon Mueller                                 : openCOSMO-RS                            
  Christopher J. Cramer and Donald G. Truhlar   : smd solvation model                     
  S Lehtola, MJT Oliveira, MAL Marques          : LibXC Library                           
  Liviu Ungur et al                             : ANISO software                          


 Your calculation uses the libint2 library for the computation of 2-el integrals
 For citations please refer to: http://libint.valeyev.net

 Your ORCA version has been built with support for libXC version: 6.2.2
 For citations please refer to: https://libxc.gitlab.io

 This ORCA versions uses:
   CBLAS   interface :  Fast vector & matrix operations
   LAPACKE interface :  Fast linear algebra routines
   SCALAPACK package :  Parallel linear algebra routines
   Shared memory     :  Shared parallel matrices
   BLAS/LAPACK       :  OpenBLAS 0.3.27  USE64BITINT DYNAMIC_ARCH NO_AFFINITY Haswell SINGLE_THREADED
        Core in use  :  Haswell
   Copyright (c) 2011-2014, The OpenBLAS Project


Your calculation utilizes the atom-pairwise dispersion correction
with the Becke-Johnson damping scheme (D3BJ)


================================================================================

----- Orbital basis set information -----
Your calculation utilizes the basis: def2-TZVP
   F. Weigend and R. Ahlrichs, Phys. Chem. Chem. Phys. 7, 3297 (2005).

----- AuxJ basis set information -----
Your calculation utilizes the auxiliary basis: def2/J
   F. Weigend, Phys. Chem. Chem. Phys. 8, 1057 (2006).

================================================================================
                                        WARNINGS
                       Please study these warnings very carefully!
================================================================================


WARNING: Geometry Optimization
  ===> : Switching off AutoStart
         For restart on a previous wavefunction, please use MOREAD

================================================================================
                                       INPUT FILE
================================================================================
NAME = input.inp
|  1> !PBE0 D3BJ def2-TZVP def2/J opt Freq
|  2> 
|  3> %scf
|  4>    MaxIter 1000
|  5> end
|  6> 
|  7> %geom
|  8>    MaxIter 1000
|  9> end
| 10> 
| 11> %pal
| 12>    nprocs 8
| 13> end
| 14> 
| 15> * xyz 0 1
| 16> C    0.138408    7.357913    4.126938
| 17> H    0.855711    7.165502    3.569272
| 18> C    0.301944    8.303633    5.119730
| 19> H    1.118970    8.736558    5.219424
| 20> C   -0.745487    8.605863    5.962979
| 21> C   -1.951772    7.922441    5.799937
| 22> H   -2.672909    8.099423    6.360719
| 23> C   -2.063358    6.980352    4.797696
| 24> C    0.290124    6.181664    0.654245
| 25> H    1.069378    6.245196    0.149542
| 26> C    1.110022    4.445425    2.141252
| 27> C    0.600100    3.694840    3.238203
| 28> C    1.436960    2.720077    3.810200
| 29> H    1.113930    2.186408    4.500793
| 30> C    2.720997    2.549448    3.362613
| 31> H    3.273268    1.914128    3.757238
| 32> C    3.195287    3.340876    2.303359
| 33> C    2.397171    4.279334    1.674037
| 34> H    2.717798    4.782145    0.960598
| 35> N   -1.023527    6.703534    3.937519
| 36> N    0.158527    5.365731    1.655968
| 37> N    4.554656    3.183861    1.862938
| 38> O   -0.611217    3.926368    3.657543
| 39> O    5.295289    2.402417    2.488417
| 40> O    4.954891    3.840963    0.896524
| 41> Fe  -1.474074    5.352027    2.596212
| 42> H   -0.650089    9.251167    6.625532
| 43> C   -3.238273    6.181664    4.538178
| 44> C   -0.884791    6.980352    0.394728
| 45> O   -2.336932    3.926368    1.534880
| 46> N   -3.106675    5.365731    3.536456
| 47> N   -1.924622    6.703534    1.254905
| 48> H   -4.017526    6.245196    5.042882
| 49> C   -0.996377    7.922441   -0.607514
| 50> C   -3.548249    3.694840    1.954221
| 51> C   -4.058171    4.445425    3.051172
| 52> C   -3.086557    7.357913    1.065485
| 53> C   -2.202662    8.605863   -0.770556
| 54> H   -0.275240    8.099423   -1.168295
| 55> C   -4.385109    2.720077    1.382223
| 56> C   -5.345320    4.279334    3.518386
| 57> H   -3.803860    7.165502    1.623152
| 58> C   -3.250093    8.303633    0.072694
| 59> H   -2.298060    9.251167   -1.433109
| 60> H   -4.062079    2.186408    0.691631
| 61> C   -5.669146    2.549448    1.829810
| 62> C   -6.143436    3.340876    2.889064
| 63> H   -5.665947    4.782145    4.231825
| 64> H   -4.067119    8.736558   -0.027001
| 65> H   -6.221417    1.914128    1.435186
| 66> N   -7.502804    3.183861    3.329486
| 67> O   -8.243437    2.402417    2.704006
| 68> O   -7.903040    3.840963    4.295900
| 69> *
| 70> 
| 71>                          ****END OF INPUT****
================================================================================

                       *****************************
                       * Geometry Optimization Run *
                       *****************************

Geometry optimization settings:
Update method            Update   .... BFGS
Choice of coordinates    CoordSys .... (2022) Redundant Internals
Initial Hessian          InHess   .... Almloef's Model
Max. no of cycles        MaxIter  .... 1000

Convergence Tolerances:
Energy Change            TolE     ....  5.0000e-06 Eh
Max. Gradient            TolMAXG  ....  3.0000e-04 Eh/bohr
RMS Gradient             TolRMSG  ....  1.0000e-04 Eh/bohr
Max. Displacement        TolMAXD  ....  4.0000e-03 bohr
RMS Displacement         TolRMSD  ....  2.0000e-03 bohr
Strict Convergence                .... False

------------------------------------------------------------------------------
                        ORCA OPTIMIZATION COORDINATE SETUP
------------------------------------------------------------------------------

The optimization will be done in redundant internal coordinates (2022)
Making redundant internal coordinates   ...  (2022 redundants) done
Evaluating the initial hessian          ...  (Almloef) done
Evaluating the coordinates              ...  done
Calculating the B-matrix                .... done
Calculating the G-matrix                .... done
Diagonalizing the G-matrix              .... done
Small eigenvalue found = 1.662e-02
Small eigenvalue found = 2.176e-02
Small eigenvalue found = 2.713e-02
The first mode is                       ....  491
The number of degrees of freedom        ....  153

    -----------------------------------------------------------------
                    Redundant Internal Coordinates


    -----------------------------------------------------------------
         Definition                    Initial Value    Approx d2E/dq
    -----------------------------------------------------------------
      1. B(H   1,C   0)                  0.9287         0.651210   
      2. B(C   2,C   0)                  1.3809         0.646138   
      3. B(H   3,C   2)                  0.9300         0.648183   
      4. B(C   4,C   2)                  1.3782         0.652399   
      5. B(C   5,C   4)                  1.3960         0.611211   
      6. B(H   6,C   5)                  0.9305         0.646977   
      7. B(C   7,C   5)                  1.3800         0.648115   
      8. B(H   9,C   8)                  0.9306         0.646772   
      9. B(C  11,C  10)                  1.4236         0.552200   
     10. B(C  12,C  11)                  1.4063         0.588483   
     11. B(H  13,C  12)                  0.9306         0.646681   
     12. B(C  14,C  12)                  1.3705         0.671260   
     13. B(H  15,C  14)                  0.9297         0.648863   
     14. B(C  16,C  14)                  1.4048         0.591838   
     15. B(C  17,C  10)                  1.3794         0.649706   
     16. B(C  17,C  16)                  1.3834         0.640179   
     17. B(H  18,C  17)                  0.9298         0.648540   
     18. B(N  19,C   7)                  1.3776         0.585678   
     19. B(N  19,C   0)                  1.3469         0.655560   
     20. B(N  20,C  10)                  1.4099         0.520155   
     21. B(N  20,C   8)                  1.2987         0.782718   
     22. B(N  21,C  16)                  1.4375         0.469933   
     23. B(O  22,C  11)                  1.3026         0.771495   
     24. B(O  23,N  21)                  1.2452         0.853297   
     25. B(O  24,N  21)                  1.2353         0.884813   
     26. B(Fe 25,N  19)                  1.9567         0.706105   
     27. B(Fe 25,C  11)                  2.7314         0.045785   
     28. B(Fe 25,C  10)                  2.7761         0.038860   
     29. B(Fe 25,C   8)                  2.7517         0.042495   
     30. B(Fe 25,N  20)                  1.8840         0.922104   
     31. B(Fe 25,C   7)                  2.8009         0.035466   
     32. B(Fe 25,O  22)                  1.9757         0.658460   
     33. B(H  26,C   4)                  0.9298         0.648695   
     34. B(C  27,Fe 25)                  2.7517         0.042495   
     35. B(C  27,C   7)                  1.4442         0.512019   
     36. B(C  28,Fe 25)                  2.8009         0.035466   
     37. B(C  28,C   8)                  1.4442         0.512019   
     38. B(O  29,Fe 25)                  1.9757         0.658458   
     39. B(N  30,C  27)                  1.2987         0.782720   
     40. B(N  30,Fe 25)                  1.8840         0.922104   
     41. B(N  31,C  28)                  1.3776         0.585678   
     42. B(N  31,Fe 25)                  1.9567         0.706104   
     43. B(H  32,C  27)                  0.9306         0.646773   
     44. B(C  33,C  28)                  1.3800         0.648114   
     45. B(C  34,O  29)                  1.3026         0.771494   
     46. B(C  34,Fe 25)                  2.7314         0.045785   
     47. B(C  35,C  34)                  1.4236         0.552200   
     48. B(C  35,N  30)                  1.4099         0.520154   
     49. B(C  35,Fe 25)                  2.7761         0.038860   
     50. B(C  36,N  31)                  1.3469         0.655559   
     51. B(C  37,C  33)                  1.3960         0.611211   
     52. B(H  38,C  33)                  0.9305         0.646978   
     53. B(C  39,C  34)                  1.4063         0.588482   
     54. B(C  40,C  35)                  1.3794         0.649707   
     55. B(H  41,C  36)                  0.9287         0.651209   
     56. B(C  42,C  37)                  1.3782         0.652398   
     57. B(C  42,C  36)                  1.3809         0.646140   
     58. B(H  43,C  37)                  0.9298         0.648695   
     59. B(H  44,C  39)                  0.9306         0.646683   
     60. B(C  45,C  39)                  1.3705         0.671260   
     61. B(C  46,C  45)                  1.4048         0.591838   
     62. B(C  46,C  40)                  1.3834         0.640179   
     63. B(H  47,C  40)                  0.9298         0.648540   
     64. B(H  48,C  42)                  0.9300         0.648183   
     65. B(H  49,C  45)                  0.9297         0.648864   
     66. B(N  50,C  46)                  1.4375         0.469934   
     67. B(O  51,N  50)                  1.2452         0.853295   
     68. B(O  52,N  50)                  1.2353         0.884812   
     69. A(H   1,C   0,N  19)          118.7625         0.392099   
     70. A(C   2,C   0,N  19)          122.4127         0.438828   
     71. A(H   1,C   0,C   2)          118.8249         0.393614   
     72. A(C   0,C   2,C   4)          120.0046         0.441345   
     73. A(C   0,C   2,H   3)          119.9958         0.393293   
     74. A(H   3,C   2,C   4)          119.9996         0.393957   
     75. A(C   2,C   4,C   5)          118.5480         0.436941   
     76. A(C   5,C   4,H  26)          120.7745         0.389543   
     77. A(C   2,C   4,H  26)          120.6775         0.394012   
     78. A(C   4,C   5,H   6)          120.4097         0.389363   
     79. A(H   6,C   5,C   7)          120.3222         0.393375   
     80. A(C   4,C   5,C   7)          119.2681         0.436423   
     81. A(C   5,C   7,Fe 25)          161.9288         0.299656   
     82. A(N  19,C   7,C  27)          113.0008         0.412524   
     83. A(C   5,C   7,C  27)          125.0173         0.422773   
     84. A(N  19,C   7,Fe 25)           39.9691         0.293187   
     85. A(C   5,C   7,N  19)          121.9794         0.430252   
     86. A(Fe 25,C   7,C  27)           73.0470         0.288712   
     87. A(N  20,C   8,Fe 25)           36.9880         0.316147   
     88. A(H   9,C   8,Fe 25)          160.0849         0.278716   
     89. A(H   9,C   8,C  28)          123.0951         0.377541   
     90. A(N  20,C   8,C  28)          113.8058         0.434472   
     91. A(Fe 25,C   8,C  28)           76.8189         0.297055   
     92. A(H   9,C   8,N  20)          123.0991         0.404020   
     93. A(C  11,C  10,C  17)          122.1239         0.428718   
     94. A(N  20,C  10,Fe 25)           38.2823         0.291932   
     95. A(C  11,C  10,N  20)          111.5702         0.409383   
     96. A(C  11,C  10,Fe 25)           73.2907         0.296403   
     97. A(C  17,C  10,Fe 25)          164.4639         0.304178   
     98. A(C  17,C  10,N  20)          126.2825         0.421395   
     99. A(C  12,C  11,O  22)          123.0686         0.444365   
    100. A(C  12,C  11,Fe 25)          165.4726         0.307368   
    101. A(C  10,C  11,Fe 25)           76.7624         0.304246   
    102. A(O  22,C  11,Fe 25)           42.4096         0.319260   
    103. A(C  10,C  11,O  22)          119.1719         0.439283   
    104. A(C  10,C  11,C  12)          117.7559         0.421193   
    105. A(C  11,C  12,H  13)          119.5217         0.386767   
    106. A(H  13,C  12,C  14)          119.7473         0.395770   
    107. A(C  11,C  12,C  14)          120.7310         0.436202   
    108. A(C  12,C  14,C  16)          119.5024         0.436649   
    109. A(C  12,C  14,H  15)          120.1995         0.396004   
    110. A(H  15,C  14,C  16)          120.2980         0.387377   
    111. A(C  17,C  16,N  21)          118.7039         0.412758   
    112. A(C  14,C  16,N  21)          119.2589         0.407056   
    113. A(C  14,C  16,C  17)          122.0348         0.432939   
    114. A(C  10,C  17,H  18)          121.1005         0.393710   
    115. A(C  10,C  17,C  16)          117.7724         0.440278   
    116. A(C  16,C  17,H  18)          121.1270         0.392693   
    117. A(C   0,N  19,Fe 25)          129.0950         0.498821   
    118. A(C   0,N  19,C   7)          117.7565         0.428320   
    119. A(C   7,N  19,Fe 25)          113.1422         0.488497   
    120. A(C   8,N  20,Fe 25)          118.5109         0.542164   
    121. A(C  10,N  20,Fe 25)          114.0967         0.502130   
    122. A(C   8,N  20,C  10)          127.3892         0.432854   
    123. A(C  16,N  21,O  24)          119.2073         0.431597   
    124. A(C  16,N  21,O  23)          118.4972         0.428796   
    125. A(O  23,N  21,O  24)          122.2838         0.477830   
    126. A(C  11,O  22,Fe 25)          111.1894         0.507537   
    127. A(C  11,Fe 25,N  20)           57.5665         0.366556   
    128. A(O  22,Fe 25,N  31)          165.2870         0.563932   
    129. A(C  10,Fe 25,N  20)           27.6210         0.356443   
    130. A(C   8,Fe 25,N  20)           24.5011         0.361910   
    131. A(C  11,Fe 25,N  31)          139.0284         0.350286   
    132. A(C  10,Fe 25,N  31)          109.1210         0.340766   
    133. A(C   7,Fe 25,N  20)          124.7732         0.350967   
    134. A(C   8,Fe 25,N  31)           57.0166         0.345912   
    135. A(C   7,Fe 25,N  31)           95.0945         0.335610   
    136. A(O  29,Fe 25,N  30)           83.9665         0.593506   
    137. A(C  28,Fe 25,N  30)          124.7732         0.350967   
    138. A(C  27,Fe 25,N  30)           24.5011         0.361910   
    139. A(C  10,Fe 25,N  19)           97.0986         0.340766   
    140. A(C   8,Fe 25,N  19)           97.3484         0.345913   
    141. A(C  10,Fe 25,N  30)          152.9721         0.356443   
    142. A(C   7,Fe 25,N  19)           26.8887         0.335611   
    143. A(C   7,Fe 25,N  30)           54.6347         0.350967   
    144. A(C  28,Fe 25,O  29)           95.1153         0.331742   
    145. A(C  27,Fe 25,O  29)          108.4615         0.341882   
    146. A(N  20,Fe 25,O  29)           96.6386         0.593506   
    147. A(C  11,Fe 25,O  29)           91.1520         0.346187   
    148. A(C   8,Fe 25,C  11)           82.0644         0.228124   
    149. A(C  10,Fe 25,O  29)           94.7517         0.336816   
    150. A(C   8,Fe 25,O  29)           96.8026         0.341882   
    151. A(C   7,Fe 25,C  11)          109.1317         0.222545   
    152. A(C   7,Fe 25,O  29)          138.5761         0.331742   
    153. A(N  31,Fe 25,C  35)           97.0986         0.340765   
    154. A(O  22,Fe 25,C  28)          138.5761         0.331742   
    155. A(N  20,Fe 25,C  28)           54.6347         0.350967   
    156. A(N  19,Fe 25,C  28)           95.0946         0.335611   
    157. A(C   8,Fe 25,C  10)           52.1213         0.223055   
    158. A(C  10,Fe 25,C  28)           82.2532         0.217680   
    159. A(C   8,Fe 25,C  28)           30.1341         0.220310   
    160. A(C   7,Fe 25,C  10)          120.9647         0.217680   
    161. A(C   7,Fe 25,C  28)          108.9088         0.215045   
    162. A(C  27,Fe 25,C  28)          120.9507         0.220310   
    163. A(C  11,Fe 25,C  28)          112.1905         0.222545   
    164. A(O  22,Fe 25,C  27)           96.8026         0.341882   
    165. A(N  20,Fe 25,C  27)          154.8998         0.361910   
    166. A(C  34,Fe 25,C  35)           29.9468         0.225337   
    167. A(N  19,Fe 25,C  27)           57.0166         0.345913   
    168. A(N  19,Fe 25,O  29)          165.2870         0.563931   
    169. A(C  10,Fe 25,C  11)           29.9468         0.225337   
    170. A(O  22,Fe 25,O  29)           87.6280         0.556481   
    171. A(O  29,Fe 25,C  35)           56.3477         0.336816   
    172. A(C  28,Fe 25,C  35)          120.9647         0.217679   
    173. A(C  11,Fe 25,C  27)          120.2588         0.228124   
    174. A(C   8,Fe 25,N  30)          154.8998         0.361910   
    175. A(C   7,Fe 25,C   8)          120.9507         0.220310   
    176. A(C  11,Fe 25,N  30)          123.0346         0.366556   
    177. A(N  19,Fe 25,N  30)           81.5124         0.601547   
    178. A(O  22,Fe 25,N  30)           96.6386         0.593506   
    179. A(C  10,Fe 25,C  27)          144.1858         0.223055   
    180. A(N  19,Fe 25,C  35)          109.1210         0.340765   
    181. A(C   8,Fe 25,C  27)          144.9048         0.225796   
    182. A(C  11,Fe 25,N  19)           94.7662         0.350286   
    183. A(C   7,Fe 25,C  27)           30.1341         0.220310   
    184. A(C   8,Fe 25,C  35)          144.1857         0.223055   
    185. A(C   7,Fe 25,C  35)           82.2532         0.217679   
    186. A(N  31,Fe 25,C  34)           94.7662         0.350286   
    187. A(N  30,Fe 25,C  34)           57.5665         0.366556   
    188. A(O  29,Fe 25,C  34)           26.4009         0.346187   
    189. A(N  19,Fe 25,N  31)           92.6277         0.571501   
    190. A(N  20,Fe 25,N  31)           81.5124         0.601546   
    191. A(C  28,Fe 25,C  34)          109.1317         0.222545   
    192. A(C  27,Fe 25,N  31)           97.3483         0.345912   
    193. A(C  28,Fe 25,N  31)           26.8887         0.335610   
    194. A(O  29,Fe 25,N  31)           91.6966         0.563931   
    195. A(C  27,Fe 25,C  34)           82.0644         0.228124   
    196. A(O  22,Fe 25,C  34)           91.1520         0.346187   
    197. A(N  20,Fe 25,O  22)           83.9665         0.593506   
    198. A(C  10,Fe 25,C  34)          118.0478         0.225337   
    199. A(N  19,Fe 25,O  22)           91.6966         0.563932   
    200. A(C   7,Fe 25,C  34)          112.1904         0.222545   
    201. A(C  11,Fe 25,O  22)           26.4009         0.346187   
    202. A(C  10,Fe 25,O  22)           56.3477         0.336816   
    203. A(C   8,Fe 25,O  22)          108.4615         0.341882   
    204. A(C  27,Fe 25,C  35)           52.1213         0.223055   
    205. A(C   7,Fe 25,O  22)           95.1153         0.331742   
    206. A(C   8,Fe 25,C  34)          120.2588         0.228124   
    207. A(N  30,Fe 25,C  35)           27.6210         0.356443   
    208. A(C  11,Fe 25,C  34)          105.2954         0.230492   
    209. A(N  19,Fe 25,C  34)          139.0284         0.350286   
    210. A(N  20,Fe 25,C  34)          123.0346         0.366556   
    211. A(O  22,Fe 25,C  35)           94.7517         0.336816   
    212. A(N  19,Fe 25,N  20)           97.9060         0.601547   
    213. A(N  30,Fe 25,N  31)           97.9059         0.601546   
    214. A(N  20,Fe 25,C  35)          152.9721         0.356443   
    215. A(C  11,Fe 25,C  35)          118.0478         0.225337   
    216. A(C  10,Fe 25,C  35)          141.8774         0.220369   
    217. A(Fe 25,C  27,N  30)           36.9879         0.316147   
    218. A(C   7,C  27,N  30)          113.8058         0.434472   
    219. A(C   7,C  27,Fe 25)           76.8189         0.297055   
    220. A(N  30,C  27,H  32)          123.0992         0.404020   
    221. A(Fe 25,C  27,H  32)          160.0850         0.278716   
    222. A(C   7,C  27,H  32)          123.0950         0.377541   
    223. A(C   8,C  28,Fe 25)           73.0470         0.288712   
    224. A(N  31,C  28,C  33)          121.9794         0.430252   
    225. A(Fe 25,C  28,C  33)          161.9288         0.299655   
    226. A(C   8,C  28,C  33)          125.0172         0.422773   
    227. A(Fe 25,C  28,N  31)           39.9691         0.293187   
    228. A(C   8,C  28,N  31)          113.0008         0.412524   
    229. A(Fe 25,O  29,C  34)          111.1894         0.507536   
    230. A(Fe 25,N  30,C  27)          118.5110         0.542164   
    231. A(C  27,N  30,C  35)          127.3891         0.432854   
    232. A(Fe 25,N  30,C  35)          114.0968         0.502130   
    233. A(C  28,N  31,C  36)          117.7564         0.428320   
    234. A(Fe 25,N  31,C  36)          129.0950         0.498821   
    235. A(Fe 25,N  31,C  28)          113.1422         0.488497   
    236. A(C  37,C  33,H  38)          120.4098         0.389363   
    237. A(C  28,C  33,H  38)          120.3222         0.393375   
    238. A(C  28,C  33,C  37)          119.2681         0.436422   
    239. A(C  35,C  34,C  39)          117.7560         0.421193   
    240. A(O  29,C  34,C  39)          123.0686         0.444364   
    241. A(Fe 25,C  34,C  39)          165.4726         0.307368   
    242. A(O  29,C  34,C  35)          119.1719         0.439283   
    243. A(Fe 25,C  34,C  35)           76.7624         0.304245   
    244. A(Fe 25,C  34,O  29)           42.4097         0.319260   
    245. A(C  34,C  35,C  40)          122.1238         0.428718   
    246. A(N  30,C  35,C  40)          126.2825         0.421395   
    247. A(Fe 25,C  35,C  40)          164.4639         0.304178   
    248. A(N  30,C  35,C  34)          111.5701         0.409383   
    249. A(Fe 25,C  35,C  34)           73.2907         0.296403   
    250. A(Fe 25,C  35,N  30)           38.2823         0.291931   
    251. A(H  41,C  36,C  42)          118.8249         0.393614   
    252. A(N  31,C  36,C  42)          122.4127         0.438828   
    253. A(N  31,C  36,H  41)          118.7624         0.392098   
    254. A(C  42,C  37,H  43)          120.6775         0.394012   
    255. A(C  33,C  37,H  43)          120.7745         0.389543   
    256. A(C  33,C  37,C  42)          118.5480         0.436941   
    257. A(H  44,C  39,C  45)          119.7473         0.395770   
    258. A(C  34,C  39,C  45)          120.7309         0.436202   
    259. A(C  34,C  39,H  44)          119.5217         0.386767   
    260. A(C  46,C  40,H  47)          121.1270         0.392693   
    261. A(C  35,C  40,H  47)          121.1005         0.393710   
    262. A(C  35,C  40,C  46)          117.7724         0.440278   
    263. A(C  37,C  42,H  48)          119.9996         0.393957   
    264. A(C  36,C  42,H  48)          119.9958         0.393293   
    265. A(C  36,C  42,C  37)          120.0046         0.441345   
    266. A(C  46,C  45,H  49)          120.2980         0.387377   
    267. A(C  39,C  45,H  49)          120.1996         0.396004   
    268. A(C  39,C  45,C  46)          119.5024         0.436649   
    269. A(C  45,C  46,N  50)          119.2590         0.407056   
    270. A(C  40,C  46,N  50)          118.7039         0.412758   
    271. A(C  40,C  46,C  45)          122.0348         0.432939   
    272. A(O  51,N  50,O  52)          122.2838         0.477830   
    273. A(C  46,N  50,O  52)          119.2074         0.431597   
    274. A(C  46,N  50,O  51)          118.4972         0.428796   
    275. D(H   3,C   2,C   0,H   1)      0.1388         0.029045   
    276. D(C   4,C   2,C   0,N  19)      0.1301         0.029045   
    277. D(H   3,C   2,C   0,N  19)   -179.8785         0.029045   
    278. D(C   4,C   2,C   0,H   1)   -179.8526         0.029045   
    279. D(H  26,C   4,C   2,H   3)      1.0311         0.029650   
    280. D(C   5,C   4,C   2,H   3)   -178.9899         0.029650   
    281. D(C   5,C   4,C   2,C   0)      1.0014         0.029650   
    282. D(H  26,C   4,C   2,C   0)   -178.9775         0.029650   
    283. D(H   6,C   5,C   4,H  26)     -0.6790         0.025807   
    284. D(H   6,C   5,C   4,C   2)    179.3421         0.025807   
    285. D(C   7,C   5,C   4,C   2)     -0.6326         0.025807   
    286. D(C   7,C   5,C   4,H  26)    179.3463         0.025807   
    287. D(Fe 25,C   7,C   5,C   4)     -3.2124         0.031782   
    288. D(N  19,C   7,C   5,C   4)     -0.8689         0.031782   
    289. D(N  19,C   7,C   5,H   6)    179.1563         0.031782   
    290. D(Fe 25,C   7,C   5,H   6)    176.8129         0.031782   
    291. D(C  27,C   7,C   5,C   4)    178.5111         0.031782   
    292. D(C  12,C  11,C  10,C  17)     -2.6883         0.024316   
    293. D(C  12,C  11,C  10,Fe 25)    179.4520         0.024316   
    294. D(O  22,C  11,C  10,N  20)     -0.3665         0.024316   
    295. D(O  22,C  11,C  10,C  17)    177.9729         0.024316   
    296. D(C  12,C  11,C  10,N  20)    178.9723         0.024316   
    297. D(O  22,C  11,C  10,Fe 25)      0.1133         0.024316   
    298. D(C  14,C  12,C  11,C  10)      3.0673         0.025877   
    299. D(C  14,C  12,C  11,O  22)   -177.6217         0.025877   
    300. D(H  13,C  12,C  11,Fe 25)      0.8790         0.025877   
    301. D(H  13,C  12,C  11,O  22)      2.3169         0.025877   
    302. D(H  13,C  12,C  11,C  10)   -176.9941         0.025877   
    303. D(C  16,C  14,C  12,C  11)     -1.2336         0.031522   
    304. D(H  15,C  14,C  12,H  13)     -1.1367         0.031522   
    305. D(C  16,C  14,C  12,H  13)    178.8280         0.031522   
    306. D(H  15,C  14,C  12,C  11)    178.8018         0.031522   
    307. D(N  21,C  16,C  14,C  12)    178.2605         0.024112   
    308. D(C  17,C  16,C  14,C  12)     -1.1733         0.024112   
    309. D(N  21,C  16,C  14,H  15)     -1.7749         0.024112   
    310. D(C  17,C  16,C  14,H  15)    178.7913         0.024112   
    311. D(H  18,C  17,C  16,C  14)   -178.5140         0.028475   
    312. D(C  16,C  17,C  10,N  20)    178.5027         0.031950   
    313. D(H  18,C  17,C  16,N  21)      2.0493         0.028475   
    314. D(C  10,C  17,C  16,N  21)   -177.8796         0.028475   
    315. D(H  18,C  17,C  10,N  20)     -1.4262         0.031950   
    316. D(C  16,C  17,C  10,Fe 25)    172.7438         0.031950   
    317. D(C  16,C  17,C  10,C  11)      0.4185         0.031950   
    318. D(C  10,C  17,C  16,C  14)      1.5572         0.028475   
    319. D(H  18,C  17,C  10,C  11)   -179.5104         0.031950   
    320. D(Fe 25,N  19,C   7,C   5)   -178.8686         0.029940   
    321. D(C   0,N  19,C   7,C   5)      1.9634         0.029940   
    322. D(Fe 25,N  19,C   0,H   1)     -0.6226         0.035125   
    323. D(Fe 25,N  19,C   7,C  27)      1.6830         0.029940   
    324. D(C   7,N  19,C   0,H   1)    178.3916         0.035125   
    325. D(C   0,N  19,C   7,C  27)   -177.4850         0.029940   
    326. D(Fe 25,N  19,C   0,C   2)    179.3947         0.035125   
    327. D(C   0,N  19,C   7,Fe 25)   -179.1680         0.029940   
    328. D(C   7,N  19,C   0,C   2)     -1.5911         0.035125   
    329. D(C   8,N  20,C  10,C  11)   -178.6002         0.023284   
    330. D(C  10,N  20,C   8,Fe 25)    179.3163         0.056591   
    331. D(C  10,N  20,C   8,C  28)    178.8502         0.056591   
    332. D(C  10,N  20,C   8,H   9)     -1.0859         0.056591   
    333. D(Fe 25,N  20,C   8,H   9)    179.5978         0.056591   
    334. D(Fe 25,N  20,C  10,C  11)      0.7417         0.023284   
    335. D(C   8,N  20,C  10,Fe 25)   -179.3419         0.023284   
    336. D(Fe 25,N  20,C   8,C  28)     -0.4661         0.056591   
    337. D(C   8,N  20,C  10,C  17)      3.1445         0.023284   
    338. D(Fe 25,N  20,C  10,C  17)   -177.5136         0.023284   
    339. D(O  23,N  21,C  16,C  17)    175.3225         0.017407   
    340. D(O  24,N  21,C  16,C  14)    177.0822         0.017407   
    341. D(O  23,N  21,C  16,C  14)     -4.1303         0.017407   
    342. D(O  24,N  21,C  16,C  17)     -3.4651         0.017407   
    343. D(Fe 25,O  22,C  11,C  12)   -179.4652         0.050306   
    344. D(Fe 25,O  22,C  11,C  10)     -0.1635         0.050306   
    345. D(C   8,Fe 25,C  11,O  22)   -179.0302         0.001518   
    346. D(C   8,Fe 25,C  11,C  10)      0.8231         0.001518   
    347. D(C   7,Fe 25,C  11,O  22)     60.8854         0.001518   
    348. D(C  10,Fe 25,C  11,C  12)   -178.0665         0.001518   
    349. D(C   7,Fe 25,C  11,C  12)     62.6722         0.001518   
    350. D(N  19,Fe 25,C  11,C  10)    -95.9515         0.001518   
    351. D(O  22,Fe 25,C  10,C  17)   -173.2965         0.001513   
    352. D(O  22,Fe 25,C  10,C  11)     -0.0784         0.001513   
    353. D(N  20,Fe 25,C  10,C  11)   -179.2798         0.001513   
    354. D(C  10,Fe 25,C  11,O  22)   -179.8533         0.001518   
    355. D(N  19,Fe 25,C  10,N  20)    -93.4959         0.001513   
    356. D(N  19,Fe 25,C  10,C  17)    -85.9939         0.001513   
    357. D(C   7,Fe 25,C  10,C  11)     73.9875         0.001513   
    358. D(C   8,Fe 25,C  10,N  20)      0.3126         0.001513   
    359. D(C   7,Fe 25,C  10,N  20)   -106.7326         0.001513   
    360. D(C   8,Fe 25,C  10,C  17)      7.8147         0.001513   
    361. D(C   7,Fe 25,C  10,C  17)    -99.2306         0.001513   
    362. D(C  11,Fe 25,C  10,C  17)   -173.2182         0.001513   
    363. D(O  22,Fe 25,C   8,H   9)     -2.3139         0.001515   
    364. D(N  20,Fe 25,C   8,C  28)    179.5620         0.001515   
    365. D(N  19,Fe 25,C   8,N  20)     92.9493         0.001515   
    366. D(N  19,Fe 25,C   8,H   9)     91.9601         0.001515   
    367. D(C  11,Fe 25,C   8,C  28)    178.6920         0.001515   
    368. D(C  11,Fe 25,C   8,N  20)     -0.8701         0.001515   
    369. D(N  19,Fe 25,C   8,C  28)    -87.4886         0.001515   
    370. D(C  11,Fe 25,C   8,H   9)     -1.8593         0.001515   
    371. D(C  10,Fe 25,C   8,C  28)    179.2125         0.001515   
    372. D(C  10,Fe 25,C   8,N  20)     -0.3495         0.001515   
    373. D(C  10,Fe 25,C   8,H   9)     -1.3388         0.001515   
    374. D(N  20,Fe 25,C   8,H   9)     -0.9893         0.001515   
    375. D(O  22,Fe 25,C   8,N  20)     -1.3247         0.001515   
    376. D(C  11,Fe 25,C  10,N  20)    179.2798         0.001513   
    377. D(C   7,Fe 25,C   8,N  20)    106.7232         0.001515   
    378. D(C  34,Fe 25,O  22,C  11)    123.5648         0.004670   
    379. D(C   8,Fe 25,C  10,C  11)   -178.9672         0.001513   
    380. D(C   7,Fe 25,C   8,C  28)    -73.7148         0.001515   
    381. D(N  30,Fe 25,O  22,C  11)   -178.9630         0.004670   
    382. D(C  35,Fe 25,O  22,C  11)    153.3398         0.004670   
    383. D(O  29,Fe 25,O  22,C  11)     97.3944         0.004670   
    384. D(N  19,Fe 25,C  10,C  11)     87.2243         0.001513   
    385. D(O  22,Fe 25,C   7,C   5)     86.7333         0.001511   
    386. D(N  19,Fe 25,O  22,C  11)    -97.3125         0.004670   
    387. D(C  10,Fe 25,O  22,C  11)      0.0880         0.004670   
    388. D(N  20,Fe 25,C  10,C  17)      7.5020         0.001513   
    389. D(N  20,Fe 25,C   7,C  27)    179.0604         0.001511   
    390. D(N  20,Fe 25,C   7,N  19)     -2.5592         0.001511   
    391. D(O  22,Fe 25,C  10,N  20)    179.2015         0.001513   
    392. D(C   7,Fe 25,C  11,C  10)   -119.2613         0.001518   
    393. D(O  29,Fe 25,N  20,C   8)     91.8435         0.008000   
    394. D(N  20,Fe 25,C   7,C   5)      0.5359         0.001511   
    395. D(C  28,Fe 25,N  20,C  10)   -179.1353         0.008000   
    396. D(C   8,Fe 25,C  11,C  12)   -177.2434         0.001518   
    397. D(C  11,Fe 25,C   7,C   5)     63.7775         0.001511   
    398. D(C  27,Fe 25,N  20,C  10)     92.4931         0.008000   
    399. D(N  19,Fe 25,C   7,C   5)      3.0951         0.001511   
    400. D(C  27,Fe 25,N  20,C   8)    -88.1020         0.008000   
    401. D(O  22,Fe 25,N  20,C   8)    178.7365         0.008000   
    402. D(C  11,Fe 25,C   7,N  19)     60.6824         0.001511   
    403. D(N  19,Fe 25,N  20,C   8)    -90.3822         0.008000   
    404. D(C  28,Fe 25,N  20,C   8)      0.2696         0.008000   
    405. D(C  10,Fe 25,N  20,C   8)    179.4049         0.008000   
    406. D(C  10,Fe 25,C   7,C  27)   -148.2207         0.001511   
    407. D(C   8,Fe 25,N  20,C  10)   -179.4049         0.008000   
    408. D(C   7,Fe 25,N  20,C  10)     91.3811         0.008000   
    409. D(C  28,Fe 25,N  19,C   0)    -58.0217         0.005278   
    410. D(C  27,Fe 25,N  19,C   0)    178.0821         0.005278   
    411. D(C  10,Fe 25,C   7,C   5)     33.2548         0.001511   
    412. D(O  22,Fe 25,N  19,C   7)    -97.9794         0.005278   
    413. D(C   8,Fe 25,C   7,N  19)    -31.4747         0.001511   
    414. D(O  22,Fe 25,N  19,C   0)     81.0719         0.005278   
    415. D(C   7,Fe 25,N  20,C   8)    -89.2140         0.008000   
    416. D(N  20,Fe 25,N  19,C   7)    177.8779         0.005278   
    417. D(C   8,Fe 25,C   7,C   5)    -28.3796         0.001511   
    418. D(N  20,Fe 25,N  19,C   0)     -3.0708         0.005278   
    419. D(C  28,Fe 25,N  19,C   7)    122.9270         0.005278   
    420. D(C  27,Fe 25,N  19,C   7)     -0.9692         0.005278   
    421. D(C  11,Fe 25,N  19,C   7)   -124.2470         0.005278   
    422. D(C   8,Fe 25,C   7,C  27)    150.1448         0.001511   
    423. D(C  11,Fe 25,N  19,C   0)     54.8043         0.005278   
    424. D(C  10,Fe 25,C   7,N  19)     30.1597         0.001511   
    425. D(C   8,Fe 25,N  19,C   0)    -27.7877         0.005278   
    426. D(C   7,Fe 25,N  19,C   0)    179.0513         0.005278   
    427. D(C  11,Fe 25,N  20,C   8)    178.9790         0.008000   
    428. D(N  19,Fe 25,C   7,C  27)   -178.3804         0.001511   
    429. D(O  22,Fe 25,C  11,C  12)      1.7868         0.001518   
    430. D(N  19,Fe 25,N  20,C  10)     90.2129         0.008000   
    431. D(O  22,Fe 25,N  20,C  10)     -0.6684         0.008000   
    432. D(C  11,Fe 25,C   7,C  27)   -117.6980         0.001511   
    433. D(O  22,Fe 25,C  11,C  10)    179.8533         0.001518   
    434. D(N  20,Fe 25,C  11,O  22)   -179.4577         0.001518   
    435. D(C  10,Fe 25,N  19,C   0)     24.7818         0.005278   
    436. D(C  11,Fe 25,N  20,C  10)     -0.4260         0.008000   
    437. D(C   8,Fe 25,N  19,C   7)    153.1610         0.005278   
    438. D(O  29,Fe 25,N  20,C  10)    -87.5614         0.008000   
    439. D(C   7,Fe 25,O  22,C  11)   -124.0351         0.004670   
    440. D(C   8,Fe 25,O  22,C  11)      1.0126         0.004670   
    441. D(N  20,Fe 25,C  11,C  12)   -177.6709         0.001518   
    442. D(N  20,Fe 25,C  11,C  10)      0.3956         0.001518   
    443. D(N  20,Fe 25,O  22,C  11)      0.4602         0.004670   
    444. D(C  27,Fe 25,O  22,C  11)   -154.2903         0.004670   
    445. D(C  28,Fe 25,O  22,C  11)      2.3500         0.004670   
    446. D(O  22,Fe 25,C   7,N  19)     83.6382         0.001511   
    447. D(C   7,Fe 25,C   8,H   9)    105.7339         0.001515   
    448. D(N  31,Fe 25,O  22,C  11)      9.7487         0.004670   
    449. D(N  19,Fe 25,C  11,O  22)     84.1952         0.001518   
    450. D(N  19,Fe 25,C  11,C  12)     85.9819         0.001518   
    451. D(C  10,Fe 25,N  19,C   7)   -154.2695         0.005278   
    452. D(N  30,C  27,Fe 25,C  10)   -129.0513         0.001515   
    453. D(N  30,C  27,Fe 25,C   8)    132.4880         0.001515   
    454. D(N  30,C  27,Fe 25,C   7)   -179.5620         0.001515   
    455. D(C   7,C  27,Fe 25,C  35)    179.2125         0.001515   
    456. D(C   7,C  27,Fe 25,C  34)    178.6919         0.001515   
    457. D(C   7,C  27,Fe 25,N  31)    -87.4887         0.001515   
    458. D(C   7,C  27,Fe 25,N  30)    179.5620         0.001515   
    459. D(C   7,C  27,Fe 25,O  29)    178.2374         0.001515   
    460. D(C   7,C  27,Fe 25,C  28)    -73.7149         0.001515   
    461. D(C   7,C  27,Fe 25,O  22)     88.4733         0.001515   
    462. D(C   7,C  27,Fe 25,N  20)     -1.8197         0.001515   
    463. D(C   7,C  27,Fe 25,N  19)      0.8731         0.001515   
    464. D(C   7,C  27,Fe 25,C  11)     75.5693         0.001515   
    465. D(C   7,C  27,Fe 25,C  10)     50.5107         0.001515   
    466. D(C   7,C  27,Fe 25,C   8)    -47.9501         0.001515   
    467. D(N  30,C  27,C   7,Fe 25)      0.2881         0.020785   
    468. D(H  32,C  27,C   7,C   5)     -0.3348         0.020785   
    469. D(N  30,C  27,C   7,N  19)     -0.8421         0.020785   
    470. D(N  30,C  27,C   7,C   5)    179.7292         0.020785   
    471. D(Fe 25,C  27,C   7,N  19)     -1.1301         0.020785   
    472. D(N  30,C  27,Fe 25,C  11)   -103.9927         0.001515   
    473. D(Fe 25,C  27,C   7,C   5)    179.4412         0.020785   
    474. D(N  31,C  28,Fe 25,C  11)    176.9813         0.001511   
    475. D(N  31,C  28,Fe 25,C  10)    177.7531         0.001511   
    476. D(N  31,C  28,Fe 25,C   7)    -62.0966         0.001511   
    477. D(C   8,C  28,Fe 25,C  35)   -148.2207         0.001511   
    478. D(C   8,C  28,Fe 25,C  34)   -117.6980         0.001511   
    479. D(C   8,C  28,Fe 25,N  30)    179.0604         0.001511   
    480. D(C   8,C  28,Fe 25,O  29)    -94.7422         0.001511   
    481. D(C   8,C  28,Fe 25,C  27)    150.1449         0.001511   
    482. D(C   8,C  28,Fe 25,O  22)     -2.5274         0.001511   
    483. D(C   8,C  28,Fe 25,N  20)     -0.2227         0.001511   
    484. D(C   8,C  28,Fe 25,N  19)     95.8658         0.001511   
    485. D(C   8,C  28,Fe 25,C  11)     -1.3992         0.001511   
    486. D(C   8,C  28,Fe 25,C  10)     -0.6273         0.001511   
    487. D(C   8,C  28,Fe 25,C   7)    119.5230         0.001511   
    488. D(C   8,C  28,Fe 25,N  31)   -178.3804         0.001511   
    489. D(C  33,C  28,C   8,H   9)     -0.3346         0.020785   
    490. D(N  31,C  28,C   8,Fe 25)     -1.1302         0.020785   
    491. D(N  31,C  28,C   8,N  20)     -0.8421         0.020785   
    492. D(N  31,C  28,Fe 25,C   8)    178.3804         0.001511   
    493. D(N  31,C  28,C   8,H   9)    179.0940         0.020785   
    494. D(Fe 25,C  28,C   8,N  20)      0.2880         0.020785   
    495. D(Fe 25,C  28,C   8,H   9)   -179.7758         0.020785   
    496. D(C  34,O  29,Fe 25,C  35)      0.0879         0.004670   
    497. D(C  34,O  29,Fe 25,N  31)    -97.3125         0.004670   
    498. D(C  34,O  29,Fe 25,C  28)   -124.0351         0.004670   
    499. D(C  34,O  29,Fe 25,C  27)      1.0125         0.004670   
    500. D(C  34,O  29,Fe 25,O  22)     97.3944         0.004670   
    501. D(C  34,O  29,Fe 25,N  20)   -178.9631         0.004670   
    502. D(C  34,O  29,Fe 25,N  19)      9.7485         0.004670   
    503. D(C  34,O  29,Fe 25,C  11)    123.5647         0.004670   
    504. D(C  34,O  29,Fe 25,N  30)      0.4602         0.004670   
    505. D(C  34,O  29,Fe 25,C  10)    153.3398         0.004670   
    506. D(C  34,O  29,Fe 25,C   8)   -154.2904         0.004670   
    507. D(C  34,O  29,Fe 25,C   7)      2.3499         0.004670   
    508. D(Fe 25,N  30,C  27,C   7)     -0.4662         0.056591   
    509. D(C  35,N  30,Fe 25,N  19)   -178.2930         0.008000   
    510. D(C  35,N  30,Fe 25,C  11)    -88.1114         0.008000   
    511. D(C  35,N  30,Fe 25,C   8)     92.4930         0.008000   
    512. D(C  35,N  30,Fe 25,C   7)   -179.1353         0.008000   
    513. D(C  27,N  30,Fe 25,C  35)    179.4050         0.008000   
    514. D(C  27,N  30,Fe 25,N  31)    -90.3822         0.008000   
    515. D(C  27,N  30,Fe 25,O  29)    178.7366         0.008000   
    516. D(C  27,N  30,Fe 25,C  28)    -89.2139         0.008000   
    517. D(C  27,N  30,Fe 25,O  22)     91.8436         0.008000   
    518. D(C  27,N  30,Fe 25,N  19)      1.1120         0.008000   
    519. D(C  27,N  30,Fe 25,C  11)     91.2936         0.008000   
    520. D(C  27,N  30,Fe 25,C  34)    178.9791         0.008000   
    521. D(C  27,N  30,Fe 25,C  10)     90.1051         0.008000   
    522. D(C  27,N  30,Fe 25,C   8)    -88.1020         0.008000   
    523. D(C  27,N  30,Fe 25,C   7)      0.2697         0.008000   
    524. D(C  35,N  30,Fe 25,C  10)    -89.2999         0.008000   
    525. D(C  35,N  30,N  20,C  10)    -88.4276         0.001500   
    526. D(C  35,N  30,N  20,C   8)     91.2660         0.001500   
    527. D(C  27,N  30,N  20,C  10)     91.2661         0.001500   
    528. D(Fe 25,N  30,C  27,H  32)    179.5978         0.056591   
    529. D(C  27,N  30,N  20,C   8)    -89.0403         0.001500   
    530. D(C  35,N  30,C  27,H  32)     -1.0858         0.056591   
    531. D(C  35,N  30,C  27,Fe 25)    179.3164         0.056591   
    532. D(C  35,N  30,C  27,C   7)    178.8502         0.056591   
    533. D(C  36,N  31,C  28,C  33)      1.9634         0.029940   
    534. D(C  36,N  31,C  28,Fe 25)   -179.1680         0.029940   
    535. D(C  36,N  31,C  28,C   8)   -177.4849         0.029940   
    536. D(Fe 25,N  31,C  28,C  33)   -178.8686         0.029940   
    537. D(Fe 25,N  31,C  28,C   8)      1.6830         0.029940   
    538. D(C  36,N  31,Fe 25,C  10)    176.6948         0.005278   
    539. D(C  36,N  31,Fe 25,C   8)    178.0821         0.005278   
    540. D(C  36,N  31,Fe 25,C   7)    -58.0217         0.005278   
    541. D(C  28,N  31,Fe 25,C  35)   -154.2695         0.005278   
    542. D(C  28,N  31,Fe 25,C  34)   -124.2470         0.005278   
    543. D(C  28,N  31,Fe 25,N  30)    177.8779         0.005278   
    544. D(C  28,N  31,Fe 25,O  29)    -97.9794         0.005278   
    545. D(C  28,N  31,Fe 25,C  27)    153.1610         0.005278   
    546. D(C  28,N  31,Fe 25,O  22)    -10.8586         0.005278   
    547. D(C  28,N  31,Fe 25,N  20)     -1.5189         0.005278   
    548. D(C  28,N  31,Fe 25,N  19)     96.0876         0.005278   
    549. D(C  28,N  31,Fe 25,C  11)     -4.2649         0.005278   
    550. D(C  28,N  31,Fe 25,C  10)     -2.3564         0.005278   
    551. D(C  28,N  31,Fe 25,C   8)     -0.9692         0.005278   
    552. D(C  28,N  31,Fe 25,C   7)    122.9270         0.005278   
    553. D(H  38,C  33,C  28,Fe 25)    176.8129         0.031782   
    554. D(H  38,C  33,C  28,C   8)     -1.4637         0.031782   
    555. D(C  37,C  33,C  28,N  31)     -0.8689         0.031782   
    556. D(C  37,C  33,C  28,Fe 25)     -3.2123         0.031782   
    557. D(C  37,C  33,C  28,C   8)    178.5111         0.031782   
    558. D(C  39,C  34,O  29,Fe 25)   -179.4653         0.050306   
    559. D(C  35,C  34,O  29,Fe 25)     -0.1635         0.050306   
    560. D(C  35,C  34,Fe 25,C  10)    149.4117         0.001518   
    561. D(C  35,C  34,Fe 25,C   8)   -150.2326         0.001518   
    562. D(C  35,C  34,Fe 25,C   7)      1.5322         0.001518   
    563. D(O  29,C  34,Fe 25,C  35)   -179.8534         0.001518   
    564. D(O  29,C  34,Fe 25,N  31)     84.1951         0.001518   
    565. D(O  29,C  34,Fe 25,N  30)   -179.4578         0.001518   
    566. D(O  29,C  34,Fe 25,C  28)     60.8854         0.001518   
    567. D(O  29,C  34,Fe 25,C  27)   -179.0303         0.001518   
    568. D(O  29,C  34,Fe 25,O  22)    -82.3219         0.001518   
    569. D(O  29,C  34,Fe 25,N  20)      1.2286         0.001518   
    570. D(O  29,C  34,Fe 25,N  19)   -176.2395         0.001518   
    571. D(O  29,C  34,Fe 25,C  11)    -59.7331         0.001518   
    572. D(C  35,C  34,Fe 25,C  11)    120.1203         0.001518   
    573. D(O  29,C  34,Fe 25,C  10)    -30.4417         0.001518   
    574. D(O  29,C  34,Fe 25,C   8)     29.9141         0.001518   
    575. D(O  29,C  34,Fe 25,C   7)   -178.3211         0.001518   
    576. D(C  40,C  35,C  34,Fe 25)    177.8596         0.024316   
    577. D(N  30,C  35,C  34,O  29)     -0.3665         0.024316   
    578. D(N  30,C  35,C  34,Fe 25)     -0.4798         0.024316   
    579. D(Fe 25,C  35,C  34,C  39)    179.4521         0.024316   
    580. D(Fe 25,C  35,C  34,O  29)      0.1133         0.024316   
    581. D(C  40,C  35,N  30,C  27)      3.1444         0.023283   
    582. D(C  40,C  35,N  30,Fe 25)   -177.5136         0.023283   
    583. D(C  34,C  35,N  30,C  27)   -178.6002         0.023283   
    584. D(Fe 25,C  35,N  30,C  27)   -179.3420         0.023283   
    585. D(C  34,C  35,Fe 25,C  11)    -70.9726         0.001513   
    586. D(C  34,C  35,Fe 25,C  10)    -46.6749         0.001513   
    587. D(C  34,C  35,Fe 25,C   8)     47.1266         0.001513   
    588. D(C  34,C  35,Fe 25,C   7)   -178.5682         0.001513   
    589. D(N  30,C  35,Fe 25,C  34)    179.2798         0.001513   
    590. D(N  30,C  35,Fe 25,N  31)    -93.4959         0.001513   
    591. D(N  30,C  35,Fe 25,O  29)    179.2015         0.001513   
    592. D(C  34,C  35,N  30,Fe 25)      0.7417         0.023283   
    593. D(N  30,C  35,Fe 25,C  28)   -106.7327         0.001513   
    594. D(N  30,C  35,Fe 25,C  27)      0.3126         0.001513   
    595. D(N  30,C  35,Fe 25,O  22)     95.2418         0.001513   
    596. D(N  30,C  35,Fe 25,N  20)   -178.7239         0.001513   
    597. D(N  30,C  35,Fe 25,N  19)      1.7869         0.001513   
    598. D(N  30,C  35,Fe 25,C  11)    108.3072         0.001513   
    599. D(N  30,C  35,Fe 25,C  10)    132.6049         0.001513   
    600. D(N  30,C  35,C  34,C  39)    178.9723         0.024316   
    601. D(N  30,C  35,Fe 25,C   8)   -133.5936         0.001513   
    602. D(N  30,C  35,Fe 25,C   7)      0.7116         0.001513   
    603. D(C  42,C  36,N  31,C  28)     -1.5912         0.035125   
    604. D(C  42,C  36,N  31,Fe 25)    179.3946         0.035125   
    605. D(H  41,C  36,N  31,C  28)    178.3917         0.035125   
    606. D(H  41,C  36,N  31,Fe 25)     -0.6225         0.035125   
    607. D(H  43,C  37,C  33,H  38)     -0.6790         0.025807   
    608. D(H  43,C  37,C  33,C  28)    179.3462         0.025807   
    609. D(C  42,C  37,C  33,H  38)    179.3422         0.025807   
    610. D(C  42,C  37,C  33,C  28)     -0.6326         0.025807   
    611. D(C  45,C  39,C  34,O  29)   -177.6217         0.025877   
    612. D(C  45,C  39,C  34,Fe 25)   -179.0596         0.025877   
    613. D(H  44,C  39,C  34,C  35)   -176.9941         0.025877   
    614. D(H  44,C  39,C  34,O  29)      2.3170         0.025877   
    615. D(H  44,C  39,C  34,Fe 25)      0.8791         0.025877   
    616. D(H  47,C  40,C  35,N  30)     -1.4262         0.031950   
    617. D(H  47,C  40,C  35,Fe 25)     -7.1852         0.031950   
    618. D(C  46,C  40,C  35,C  34)      0.4186         0.031950   
    619. D(C  46,C  40,C  35,N  30)    178.5027         0.031950   
    620. D(C  46,C  40,C  35,Fe 25)    172.7437         0.031950   
    621. D(H  48,C  42,C  37,H  43)      1.0312         0.029650   
    622. D(H  48,C  42,C  37,C  33)   -178.9899         0.029650   
    623. D(C  36,C  42,C  37,H  43)   -178.9775         0.029650   
    624. D(C  36,C  42,C  37,C  33)      1.0014         0.029650   
    625. D(H  48,C  42,C  36,H  41)      0.1386         0.029045   
    626. D(H  48,C  42,C  36,N  31)   -179.8785         0.029045   
    627. D(C  37,C  42,C  36,H  41)   -179.8526         0.029045   
    628. D(C  37,C  42,C  36,N  31)      0.1302         0.029045   
    629. D(H  49,C  45,C  39,H  44)     -1.1367         0.031522   
    630. D(H  49,C  45,C  39,C  34)    178.8018         0.031522   
    631. D(C  46,C  45,C  39,H  44)    178.8279         0.031522   
    632. D(C  46,C  45,C  39,C  34)     -1.2335         0.031522   
    633. D(N  50,C  46,C  45,H  49)     -1.7749         0.024112   
    634. D(N  50,C  46,C  45,C  39)    178.2605         0.024112   
    635. D(C  40,C  46,C  45,H  49)    178.7913         0.024112   
    636. D(C  40,C  46,C  45,C  39)     -1.1733         0.024112   
    637. D(N  50,C  46,C  40,H  47)      2.0492         0.028475   
    638. D(N  50,C  46,C  40,C  35)   -177.8797         0.028475   
    639. D(C  45,C  46,C  40,H  47)   -178.5140         0.028475   
    640. D(C  45,C  46,C  40,C  35)      1.5571         0.028475   
    641. D(O  52,N  50,C  46,C  45)    177.0822         0.017407   
    642. D(O  52,N  50,C  46,C  40)     -3.4650         0.017407   
    643. D(O  51,N  50,C  46,C  45)     -4.1303         0.017407   
    644. D(O  51,N  50,C  46,C  40)    175.3224         0.017407   
    -----------------------------------------------------------------

Number of atoms                         .... 53
Number of degrees of freedom            .... 644


         *************************************************************
         *                GEOMETRY OPTIMIZATION CYCLE   1            *
         *************************************************************
---------------------------------
CARTESIAN COORDINATES (ANGSTROEM)
---------------------------------
  C      0.138408    7.357913    4.126938
  H      0.855711    7.165502    3.569272
  C      0.301944    8.303633    5.119730
  H      1.118970    8.736558    5.219424
  C     -0.745487    8.605863    5.962979
  C     -1.951772    7.922441    5.799937
  H     -2.672909    8.099423    6.360719
  C     -2.063358    6.980352    4.797696
  C      0.290124    6.181664    0.654245
  H      1.069378    6.245196    0.149542
  C      1.110022    4.445425    2.141252
  C      0.600100    3.694840    3.238203
  C      1.436960    2.720077    3.810200
  H      1.113930    2.186408    4.500793
  C      2.720997    2.549448    3.362613
  H      3.273268    1.914128    3.757238
  C      3.195287    3.340876    2.303359
  C      2.397171    4.279334    1.674037
  H      2.717798    4.782145    0.960598
  N     -1.023527    6.703534    3.937519
  N      0.158527    5.365731    1.655968
  N      4.554656    3.183861    1.862938
  O     -0.611217    3.926368    3.657543
  O      5.295289    2.402417    2.488417
  O      4.954891    3.840963    0.896524
  Fe    -1.474074    5.352027    2.596212
  H     -0.650089    9.251167    6.625532
  C     -3.238273    6.181664    4.538178
  C     -0.884791    6.980352    0.394728
  O     -2.336932    3.926368    1.534880
  N     -3.106675    5.365731    3.536456
  N     -1.924622    6.703534    1.254905
  H     -4.017526    6.245196    5.042882
  C     -0.996377    7.922441   -0.607514
  C     -3.548249    3.694840    1.954221
  C     -4.058171    4.445425    3.051172
  C     -3.086557    7.357913    1.065485
  C     -2.202662    8.605863   -0.770556
  H     -0.275240    8.099423   -1.168295
  C     -4.385109    2.720077    1.382223
  C     -5.345320    4.279334    3.518386
  H     -3.803860    7.165502    1.623152
  C     -3.250093    8.303633    0.072694
  H     -2.298060    9.251167   -1.433109
  H     -4.062079    2.186408    0.691631
  C     -5.669146    2.549448    1.829810
  C     -6.143436    3.340876    2.889064
  H     -5.665947    4.782145    4.231825
  H     -4.067119    8.736558   -0.027001
  H     -6.221417    1.914128    1.435186
  N     -7.502804    3.183861    3.329486
  O     -8.243437    2.402417    2.704006
  O     -7.903040    3.840963    4.295900

----------------------------
CARTESIAN COORDINATES (A.U.)
----------------------------
  NO LB      ZA    FRAG     MASS         X           Y           Z
   0 C     6.0000    0    12.011    0.261553   13.904440    7.798783
   1 H     1.0000    0     1.008    1.617059   13.540836    6.744947
   2 C     6.0000    0    12.011    0.570591   15.691592    9.674888
   3 H     1.0000    0     1.008    2.114547   16.509702    9.863282
   4 C     6.0000    0    12.011   -1.408766   16.262724   11.268397
   5 C     6.0000    0    12.011   -3.688315   14.971244   10.960293
   6 H     1.0000    0     1.008   -5.051066   15.305691   12.020017
   7 C     6.0000    0    12.011   -3.899182   13.190954    9.066332
   8 C     6.0000    0    12.011    0.548255   11.681652    1.236344
   9 H     1.0000    0     1.008    2.020832   11.801710    0.282593
  10 C     6.0000    0    12.011    2.097638    8.400636    4.046380
  11 C     6.0000    0    12.011    1.134025    6.982236    6.119317
  12 C     6.0000    0    12.011    2.715461    5.140201    7.200235
  13 H     1.0000    0     1.008    2.105023    4.131712    8.505266
  14 C     6.0000    0    12.011    5.141939    4.817759    6.354418
  15 H     1.0000    0     1.008    6.185580    3.617178    7.100151
  16 C     6.0000    0    12.011    6.038217    6.313341    4.352718
  17 C     6.0000    0    12.011    4.529997    8.086769    3.163471
  18 H     1.0000    0     1.008    5.135894    9.036944    1.815267
  19 N     7.0000    0    14.007   -1.934186   12.667843    7.440833
  20 N     7.0000    0    14.007    0.299573   10.139762    3.129326
  21 N     7.0000    0    14.007    8.607052    6.016625    3.520443
  22 O     8.0000    0    15.999   -1.155033    7.419760    6.911755
  23 O     8.0000    0    15.999   10.006646    4.539910    4.702427
  24 O     8.0000    0    15.999    9.363387    7.258368    1.694185
  25 Fe   26.0000    0    55.850   -2.785596   10.113865    4.906130
  26 H     1.0000    0     1.008   -1.228490   17.482172   12.520441
  27 C     6.0000    0    12.011   -6.119449   11.681652    8.575914
  28 C     6.0000    0    12.011   -1.672013   13.190954    0.745928
  29 O     8.0000    0    15.999   -4.416161    7.419760    2.900503
  30 N     7.0000    0    14.007   -5.870765   10.139762    6.682933
  31 N     7.0000    0    14.007   -3.637008   12.667843    2.371427
  32 H     1.0000    0     1.008   -7.592024   11.801710    9.529666
  33 C     6.0000    0    12.011   -1.882880   14.971244   -1.148035
  34 C     6.0000    0    12.011   -6.705219    6.982236    3.692942
  35 C     6.0000    0    12.011   -7.668832    8.400636    5.765879
  36 C     6.0000    0    12.011   -5.832747   13.904440    2.013475
  37 C     6.0000    0    12.011   -4.162428   16.262724   -1.456140
  38 H     1.0000    0     1.008   -0.520128   15.305691   -2.207758
  39 C     6.0000    0    12.011   -8.286655    5.140201    2.612023
  40 C     6.0000    0    12.011  -10.101191    8.086769    6.648786
  41 H     1.0000    0     1.008   -7.188254   13.540836    3.067313
  42 C     6.0000    0    12.011   -6.141786   15.691592    0.137372
  43 H     1.0000    0     1.008   -4.342704   17.482172   -2.708184
  44 H     1.0000    0     1.008   -7.676217    4.131712    1.306993
  45 C     6.0000    0    12.011  -10.713133    4.817759    3.457840
  46 C     6.0000    0    12.011  -11.609412    6.313341    5.459540
  47 H     1.0000    0     1.008  -10.707088    9.036944    7.996990
  48 H     1.0000    0     1.008   -7.685741   16.509702   -0.051024
  49 H     1.0000    0     1.008  -11.756774    3.617178    2.712108
  50 N     7.0000    0    14.007  -14.178245    6.016625    6.291817
  51 O     8.0000    0    15.999  -15.577838    4.539910    5.109831
  52 O     8.0000    0    15.999  -14.934581    7.258368    8.118074

--------------------------------
INTERNAL COORDINATES (ANGSTROEM)
--------------------------------
 C      0   0   0     0.000000000000     0.00000000     0.00000000
 H      1   0   0     0.928728676356     0.00000000     0.00000000
 C      1   2   0     1.380857087812   118.82485586     0.00000000
 H      3   1   2     0.929997007488   119.99577151     0.13875076
 C      3   1   2     1.378232037308   120.00460284   180.14739591
 C      5   3   1     1.395984177945   118.54799123     1.00142193
 H      6   5   3     0.930503977755   120.40972971   179.34208270
 C      6   5   3     1.380025413316   119.26808584   359.36735685
 C      2   1   3     3.128131754825   119.01699193   208.55457445
 H      9   2   1     0.930590258787   109.42207319   165.09480155
 C      9   2   1     2.428569211197    65.99768826   252.62817235
 C     11   9   2     1.423622065265   136.70263113    72.21033131
 C     12  11   9     1.406299446696   117.75593256   178.10506736
 H     13  12  11     0.930628644578   119.52170038   183.00586363
 C     13  12  11     1.370474149913   120.73097518     3.06725217
 H     15  13  12     0.929711595317   120.19951551   178.80176273
 C     15  13  12     1.404752049224   119.50244351   358.76644066
 C     11   9   2     1.379358048045   101.17024607   252.89521766
 H     18  11   9     0.929847181837   121.10052836   359.93503126
 N      1   2   3     1.346916618587   118.76247086   180.01662145
 N      9   2   1     1.298658307495    59.80948328   282.79031300
 N     17  15  13     1.437535545866   119.25892070   178.26045159
 O     12  11   9     1.302589776128   119.17191405   358.76633022
 O     22  17  15     1.245156996232   118.49723220   355.86974112
 O     22  17  15     1.235284223580   119.20728570   177.08221637
 Fe    21   9   2     1.884046868937   118.51094792    85.01066277
 H      5   3   1     0.929781968329   120.67746801   181.02248972
 C      8   6   5     1.444187443130   125.01727458   178.51112647
 C      9   2   1     1.444187263432    98.08334109    35.68491451
 O     26  21   9     1.975715851703    96.63864196    91.84353894
 N     28   8   6     1.298657637477   113.80577906   179.72921365
 N     29   9   2     1.377599791309   113.00084387   298.66283477
 H     28   8   6     0.930589963759   123.09502745   359.66521467
 C     29   9   2     1.380026139564   125.01723238   119.23418954
 C     30  26  21     1.302590098056   111.18940661   181.03691513
 C     31  28   8     1.409896567947   127.38912870   178.85023312
 C     32  29   9     1.346916759219   117.75641938   182.51505657
 C     34  29   9     1.395984177945   119.26807450   178.51109281
 H     34  29   9     0.930503375090   120.32216084   358.53626936
 C     35  30  26     1.406299853436   123.06857790   180.53474401
 C     36  31  28     1.379357709326   126.28251175     3.14443689
 H     37  32  29     0.928729276818   118.76240821   178.39167227
 C     38  34  29     1.378232649142   118.54797187   359.36735708
 H     38  34  29     0.929781968329   120.77453736   179.34623781
 H     40  35  30     0.930627902507   119.52172283     2.31698191
 C     40  35  30     1.370474149913   120.73094985   182.37829151
 C     41  36  31     1.383379465983   117.77244756   178.50271515
 H     41  36  31     0.929847181837   121.10049963   358.57378029
 H     43  38  34     0.929997114687   119.99955792   181.01011299
 H     46  40  35     0.929711170857   120.19955403   178.80184118
 N     47  41  36     1.437534906614   118.70389601   182.12029262
 O     51  47  41     1.245157498562   118.49716768   175.32243965
 O     51  47  41     1.235284547582   119.20736272   356.53500069

---------------------------
INTERNAL COORDINATES (A.U.)
---------------------------
 C      0   0   0     0.000000000000     0.00000000     0.00000000
 H      1   0   0     1.755042851032     0.00000000     0.00000000
 C      1   2   0     2.609441726048   118.82485586     0.00000000
 H      3   1   2     1.757439649519   119.99577151     0.13875076
 C      3   1   2     2.604481099508   120.00460284   180.14739591
 C      5   3   1     2.638027783603   118.54799123     1.00142193
 H      6   5   3     1.758397684480   120.40972971   179.34208270
 C      6   5   3     2.607870089019   119.26808584   359.36735685
 C      2   1   3     5.911312327441   119.01699193   208.55457445
 H      9   2   1     1.758560732002   109.42207319   165.09480155
 C      9   2   1     4.589330706435    65.99768826   252.62817235
 C     11   9   2     2.690255821559   136.70263113    72.21033131
 C     12  11   9     2.657520816541   117.75593256   178.10506736
 H     13  12  11     1.758633270636   119.52170038   183.00586363
 C     13  12  11     2.589820816954   120.73097518     3.06725217
 H     15  13  12     1.756900298679   120.19951551   178.80176273
 C     15  13  12     2.654596659099   119.50244351   358.76644066
 C     11   9   2     2.606608951426   101.17024607   252.89521766
 H     18  11   9     1.757156520071   121.10052836   359.93503126
 N      1   2   3     2.545303534358   118.76247086   180.01662145
 N      9   2   1     2.454108542708    59.80948328   282.79031300
 N     17  15  13     2.716548489463   119.25892070   178.26045159
 O     12  11   9     2.461537941728   119.17191405   358.76633022
 O     22  17  15     2.353005716615   118.49723220   355.86974112
 O     22  17  15     2.334348880119   119.20728570   177.08221637
 Fe    21   9   2     3.560332605764   118.51094792    85.01066277
 H      5   3   1     1.757033284399   120.67746801   181.02248972
 C      8   6   5     2.729118753563   125.01727458   178.51112647
 C      9   2   1     2.729118413983    98.08334109    35.68491451
 O     26  21   9     3.733561878165    96.63864196    91.84353894
 N     28   8   6     2.454107276556   113.80577906   179.72921365
 N     29   9   2     2.603286327721   113.00084387   298.66283477
 H     28   8   6     1.758560174480   123.09502745   359.66521467
 C     29   9   2     2.607871461429   125.01723238   119.23418954
 C     30  26  21     2.461538550084   111.18940661   181.03691513
 C     31  28   8     2.664318390575   127.38912870   178.85023312
 C     32  29   9     2.545303800113   117.75641938   182.51505657
 C     34  29   9     2.638027783603   119.26807450   178.51109281
 H     34  29   9     1.758396545610   120.32216084   358.53626936
 C     35  30  26     2.657521585167   123.06857790   180.53474401
 C     36  31  28     2.606608311340   126.28251175     3.14443689
 H     37  32  29     1.755043985741   118.76240821   178.39167227
 C     38  34  29     2.604482255707   118.54797187   359.36735708
 H     38  34  29     1.757033284399   120.77453736   179.34623781
 H     40  35  30     1.758631868324   119.52172283     2.31698191
 C     40  35  30     2.589820816954   120.73094985   182.37829151
 C     41  36  31     2.614208329999   117.77244756   178.50271515
 H     41  36  31     1.757156520071   121.10049963   358.57378029
 H     43  38  34     1.757439852095   119.99955792   181.01011299
 H     46  40  35     1.756899496568   120.19955403   178.80184118
 N     47  41  36     2.716547281452   118.70389601   182.12029262
 O     51  47  41     2.353006665880   118.49716768   175.32243965
 O     51  47  41     2.334349492396   119.20736272   356.53500069

---------------------
BASIS SET INFORMATION
---------------------
There are 5 groups of distinct atoms

 Group   1 Type C   : 11s6p2d1f contracted to 5s3p2d1f pattern {62111/411/11/1}
 Group   2 Type H   : 5s1p contracted to 3s1p pattern {311/1}
 Group   3 Type N   : 11s6p2d1f contracted to 5s3p2d1f pattern {62111/411/11/1}
 Group   4 Type O   : 11s6p2d1f contracted to 5s3p2d1f pattern {62111/411/11/1}
 Group   5 Type Fe  : 17s11p7d1f contracted to 6s4p4d1f pattern {842111/6311/4111/1}

Atom   0C    basis set group =>   1
Atom   1H    basis set group =>   2
Atom   2C    basis set group =>   1
Atom   3H    basis set group =>   2
Atom   4C    basis set group =>   1
Atom   5C    basis set group =>   1
Atom   6H    basis set group =>   2
Atom   7C    basis set group =>   1
Atom   8C    basis set group =>   1
Atom   9H    basis set group =>   2
Atom  10C    basis set group =>   1
Atom  11C    basis set group =>   1
Atom  12C    basis set group =>   1
Atom  13H    basis set group =>   2
Atom  14C    basis set group =>   1
Atom  15H    basis set group =>   2
Atom  16C    basis set group =>   1
Atom  17C    basis set group =>   1
Atom  18H    basis set group =>   2
Atom  19N    basis set group =>   3
Atom  20N    basis set group =>   3
Atom  21N    basis set group =>   3
Atom  22O    basis set group =>   4
Atom  23O    basis set group =>   4
Atom  24O    basis set group =>   4
Atom  25Fe   basis set group =>   5
Atom  26H    basis set group =>   2
Atom  27C    basis set group =>   1
Atom  28C    basis set group =>   1
Atom  29O    basis set group =>   4
Atom  30N    basis set group =>   3
Atom  31N    basis set group =>   3
Atom  32H    basis set group =>   2
Atom  33C    basis set group =>   1
Atom  34C    basis set group =>   1
Atom  35C    basis set group =>   1
Atom  36C    basis set group =>   1
Atom  37C    basis set group =>   1
Atom  38H    basis set group =>   2
Atom  39C    basis set group =>   1
Atom  40C    basis set group =>   1
Atom  41H    basis set group =>   2
Atom  42C    basis set group =>   1
Atom  43H    basis set group =>   2
Atom  44H    basis set group =>   2
Atom  45C    basis set group =>   1
Atom  46C    basis set group =>   1
Atom  47H    basis set group =>   2
Atom  48H    basis set group =>   2
Atom  49H    basis set group =>   2
Atom  50N    basis set group =>   3
Atom  51O    basis set group =>   4
Atom  52O    basis set group =>   4
---------------------------------
AUXILIARY/J BASIS SET INFORMATION
---------------------------------
There are 5 groups of distinct atoms

 Group   1 Type C   : 12s5p4d2f1g contracted to 6s4p3d1f1g pattern {711111/2111/211/2/1}
 Group   2 Type H   : 5s2p1d contracted to 3s1p1d pattern {311/2/1}
 Group   3 Type N   : 12s5p4d2f1g contracted to 6s4p3d1f1g pattern {711111/2111/211/2/1}
 Group   4 Type O   : 12s5p4d2f1g contracted to 6s4p3d1f1g pattern {711111/2111/211/2/1}
 Group   5 Type Fe  : 19s5p5d3f3g contracted to 8s5p5d2f3g pattern {121111111/11111/11111/21/111}

Atom   0C    basis set group =>   1
Atom   1H    basis set group =>   2
Atom   2C    basis set group =>   1
Atom   3H    basis set group =>   2
Atom   4C    basis set group =>   1
Atom   5C    basis set group =>   1
Atom   6H    basis set group =>   2
Atom   7C    basis set group =>   1
Atom   8C    basis set group =>   1
Atom   9H    basis set group =>   2
Atom  10C    basis set group =>   1
Atom  11C    basis set group =>   1
Atom  12C    basis set group =>   1
Atom  13H    basis set group =>   2
Atom  14C    basis set group =>   1
Atom  15H    basis set group =>   2
Atom  16C    basis set group =>   1
Atom  17C    basis set group =>   1
Atom  18H    basis set group =>   2
Atom  19N    basis set group =>   3
Atom  20N    basis set group =>   3
Atom  21N    basis set group =>   3
Atom  22O    basis set group =>   4
Atom  23O    basis set group =>   4
Atom  24O    basis set group =>   4
Atom  25Fe   basis set group =>   5
Atom  26H    basis set group =>   2
Atom  27C    basis set group =>   1
Atom  28C    basis set group =>   1
Atom  29O    basis set group =>   4
Atom  30N    basis set group =>   3
Atom  31N    basis set group =>   3
Atom  32H    basis set group =>   2
Atom  33C    basis set group =>   1
Atom  34C    basis set group =>   1
Atom  35C    basis set group =>   1
Atom  36C    basis set group =>   1
Atom  37C    basis set group =>   1
Atom  38H    basis set group =>   2
Atom  39C    basis set group =>   1
Atom  40C    basis set group =>   1
Atom  41H    basis set group =>   2
Atom  42C    basis set group =>   1
Atom  43H    basis set group =>   2
Atom  44H    basis set group =>   2
Atom  45C    basis set group =>   1
Atom  46C    basis set group =>   1
Atom  47H    basis set group =>   2
Atom  48H    basis set group =>   2
Atom  49H    basis set group =>   2
Atom  50N    basis set group =>   3
Atom  51O    basis set group =>   4
Atom  52O    basis set group =>   4


           ************************************************************
[...]
137:   1650.93   0.049814  251.74  0.009416  ( 0.096244  0.000369 -0.012371)
138:   1650.95   0.000637    3.22  0.000120  ( 0.010630 -0.002311 -0.001466)
139:   1668.31   0.075756  382.84  0.014170  (-0.112974  0.000930 -0.037503)
140:   1668.93   0.033245  168.01  0.006216  ( 0.001402  0.078830  0.000419)
141:   1670.57   0.008713   44.03  0.001628  (-0.039609  0.000189  0.007657)
142:   1673.70   0.014717   74.38  0.002744  ( 0.000028  0.052384  0.000002)
143:   3180.11   0.000846    4.27  0.000083  ( 0.005130 -0.007524 -0.000278)
144:   3180.17   0.002317   11.71  0.000227  (-0.014829 -0.002603  0.000798)
145:   3205.74   0.001234    6.24  0.000120  ( 0.007519 -0.005214  0.006033)
146:   3205.75   0.001139    5.76  0.000111  (-0.004425 -0.008876 -0.003536)
147:   3212.68   0.000046    0.23  0.000005  ( 0.001013  0.001841 -0.000317)
148:   3212.71   0.000221    1.12  0.000021  (-0.004407  0.000428  0.001365)
149:   3218.58   0.000451    2.28  0.000044  (-0.002550 -0.000956 -0.006023)
150:   3218.59   0.000474    2.40  0.000046  ( 0.000357 -0.006719  0.000855)
151:   3221.87   0.000121    0.61  0.000012  (-0.001757  0.002093  0.002070)
152:   3221.88   0.000964    4.87  0.000093  ( 0.006255  0.000580 -0.007339)
153:   3229.78   0.000417    2.11  0.000040  ( 0.003647  0.002381 -0.004619)
154:   3229.82   0.000411    2.08  0.000040  (-0.003604  0.002396  0.004580)
155:   3234.13   0.000363    1.83  0.000035  (-0.004399  0.003216 -0.002305)
156:   3234.16   0.000332    1.68  0.000032  ( 0.003318  0.004247  0.001740)
157:   3238.13   0.000426    2.15  0.000041  (-0.006075 -0.001403  0.001477)
158:   3238.17   0.000383    1.94  0.000037  (-0.005727  0.001488  0.001379)

* The epsilon (eps) is given for a Dirac delta lineshape.
** The dipole moment derivative (T) already includes vibrational overlap.

The first frequency considered to be a vibration is 6
The total number of vibrations considered is 153


--------------------------
THERMOCHEMISTRY AT 298.15K
--------------------------

Temperature         ...   298.15 K
Pressure            ...     1.00 atm
Total Mass          ...   540.28 AMU
Quasi RRHO          ...     True
Cut-Off Frequency   ...     1.00 cm^-1

Throughout the following assumptions are being made:
  (1) The electronic state is orbitally nondegenerate
  (2) There are no thermally accessible electronically excited states
  (3) Hindered rotations indicated by low frequency modes are not
      treated as such but are treated as vibrations and this may
      cause some error
  (4) All equations used are the standard statistical mechanics
      equations for an ideal gas
  (5) All vibrations are strictly harmonic

freq.      16.77  E(vib)   ...       0.57 
freq.      24.79  E(vib)   ...       0.56 
freq.      38.39  E(vib)   ...       0.54 
freq.      50.33  E(vib)   ...       0.52 
freq.      51.15  E(vib)   ...       0.52 
freq.      59.57  E(vib)   ...       0.51 
freq.      63.50  E(vib)   ...       0.51 
freq.      72.76  E(vib)   ...       0.49 
freq.      78.73  E(vib)   ...       0.49 
freq.      86.53  E(vib)   ...       0.48 
freq.     103.99  E(vib)   ...       0.46 
freq.     126.68  E(vib)   ...       0.43 
freq.     143.56  E(vib)   ...       0.41 
freq.     145.57  E(vib)   ...       0.41 
freq.     155.26  E(vib)   ...       0.40 
freq.     185.70  E(vib)   ...       0.37 
freq.     191.20  E(vib)   ...       0.36 
freq.     207.96  E(vib)   ...       0.34 
freq.     217.82  E(vib)   ...       0.33 
freq.     254.91  E(vib)   ...       0.30 
freq.     266.04  E(vib)   ...       0.29 
freq.     271.61  E(vib)   ...       0.29 
freq.     286.31  E(vib)   ...       0.27 
freq.     291.68  E(vib)   ...       0.27 
freq.     313.73  E(vib)   ...       0.25 
freq.     328.89  E(vib)   ...       0.24 
freq.     334.98  E(vib)   ...       0.24 
freq.     342.00  E(vib)   ...       0.23 
freq.     354.95  E(vib)   ...       0.22 
freq.     364.58  E(vib)   ...       0.22 
freq.     390.38  E(vib)   ...       0.20 
freq.     401.64  E(vib)   ...       0.19 
freq.     434.94  E(vib)   ...       0.17 
freq.     437.76  E(vib)   ...       0.17 
freq.     442.67  E(vib)   ...       0.17 
freq.     462.41  E(vib)   ...       0.16 
freq.     476.56  E(vib)   ...       0.15 
freq.     513.70  E(vib)   ...       0.13 
freq.     516.11  E(vib)   ...       0.13 
freq.     533.39  E(vib)   ...       0.13 
freq.     533.83  E(vib)   ...       0.13 
freq.     537.89  E(vib)   ...       0.12 
freq.     539.98  E(vib)   ...       0.12 
freq.     545.34  E(vib)   ...       0.12 
freq.     546.29  E(vib)   ...       0.12 
freq.     582.27  E(vib)   ...       0.11 
freq.     585.99  E(vib)   ...       0.11 
freq.     590.61  E(vib)   ...       0.10 
freq.     591.55  E(vib)   ...       0.10 
freq.     651.15  E(vib)   ...       0.08 
freq.     653.65  E(vib)   ...       0.08 
freq.     654.93  E(vib)   ...       0.08 
freq.     656.26  E(vib)   ...       0.08 
freq.     672.92  E(vib)   ...       0.08 
freq.     673.46  E(vib)   ...       0.08 
freq.     699.86  E(vib)   ...       0.07 
freq.     700.51  E(vib)   ...       0.07 
freq.     757.88  E(vib)   ...       0.06 
freq.     758.36  E(vib)   ...       0.06 
freq.     769.15  E(vib)   ...       0.06 
freq.     772.88  E(vib)   ...       0.05 
freq.     785.69  E(vib)   ...       0.05 
freq.     786.54  E(vib)   ...       0.05 
freq.     793.43  E(vib)   ...       0.05 
freq.     795.34  E(vib)   ...       0.05 
freq.     846.18  E(vib)   ...       0.04 
freq.     848.44  E(vib)   ...       0.04 
freq.     856.84  E(vib)   ...       0.04 
freq.     857.04  E(vib)   ...       0.04 
freq.     860.86  E(vib)   ...       0.04 
freq.     861.52  E(vib)   ...       0.04 
freq.     884.45  E(vib)   ...       0.04 
freq.     884.79  E(vib)   ...       0.04 
freq.     913.17  E(vib)   ...       0.03 
freq.     913.24  E(vib)   ...       0.03 
freq.     915.74  E(vib)   ...       0.03 
freq.     916.96  E(vib)   ...       0.03 
freq.     930.84  E(vib)   ...       0.03 
freq.     930.90  E(vib)   ...       0.03 
freq.     985.11  E(vib)   ...       0.02 
freq.     985.76  E(vib)   ...       0.02 
freq.     988.59  E(vib)   ...       0.02 
freq.     991.27  E(vib)   ...       0.02 
freq.     997.83  E(vib)   ...       0.02 
freq.     997.85  E(vib)   ...       0.02 
freq.    1006.89  E(vib)   ...       0.02 
freq.    1006.91  E(vib)   ...       0.02 
freq.    1043.64  E(vib)   ...       0.02 
freq.    1046.81  E(vib)   ...       0.02 
freq.    1082.38  E(vib)   ...       0.02 
freq.    1083.12  E(vib)   ...       0.02 
freq.    1109.24  E(vib)   ...       0.02 
freq.    1111.09  E(vib)   ...       0.01 
freq.    1138.73  E(vib)   ...       0.01 
freq.    1139.35  E(vib)   ...       0.01 
freq.    1149.74  E(vib)   ...       0.01 
freq.    1149.91  E(vib)   ...       0.01 
freq.    1177.06  E(vib)   ...       0.01 
freq.    1177.34  E(vib)   ...       0.01 
freq.    1207.11  E(vib)   ...       0.01 
freq.    1208.64  E(vib)   ...       0.01 
freq.    1250.04  E(vib)   ...       0.01 
freq.    1250.91  E(vib)   ...       0.01 
freq.    1271.90  E(vib)   ...       0.01 
freq.    1274.01  E(vib)   ...       0.01 
freq.    1328.87  E(vib)   ...       0.01 
freq.    1329.02  E(vib)   ...       0.01 
freq.    1331.21  E(vib)   ...       0.01 
freq.    1333.15  E(vib)   ...       0.01 
freq.    1369.84  E(vib)   ...       0.01 
freq.    1369.85  E(vib)   ...       0.01 
freq.    1399.62  E(vib)   ...       0.00 
freq.    1404.23  E(vib)   ...       0.00 
freq.    1405.50  E(vib)   ...       0.00 
freq.    1407.53  E(vib)   ...       0.00 
freq.    1419.63  E(vib)   ...       0.00 
freq.    1419.65  E(vib)   ...       0.00 
freq.    1484.74  E(vib)   ...       0.00 
freq.    1485.33  E(vib)   ...       0.00 
freq.    1493.63  E(vib)   ...       0.00 
freq.    1494.36  E(vib)   ...       0.00 
freq.    1513.10  E(vib)   ...       0.00 
freq.    1516.30  E(vib)   ...       0.00 
freq.    1550.78  E(vib)   ...       0.00 
freq.    1555.43  E(vib)   ...       0.00 
freq.    1581.97  E(vib)   ...       0.00 
freq.    1583.11  E(vib)   ...       0.00 
freq.    1609.62  E(vib)   ...       0.00 
freq.    1613.87  E(vib)   ...       0.00 
freq.    1646.50  E(vib)   ...       0.00 
freq.    1648.02  E(vib)   ...       0.00 
freq.    1650.93  E(vib)   ...       0.00 
freq.    1650.95  E(vib)   ...       0.00 
freq.    1668.31  E(vib)   ...       0.00 
freq.    1668.93  E(vib)   ...       0.00 
freq.    1670.57  E(vib)   ...       0.00 
freq.    1673.70  E(vib)   ...       0.00 
freq.    3180.11  E(vib)   ...       0.00 
freq.    3180.17  E(vib)   ...       0.00 
freq.    3205.74  E(vib)   ...       0.00 
freq.    3205.75  E(vib)   ...       0.00 
freq.    3212.68  E(vib)   ...       0.00 
freq.    3212.71  E(vib)   ...       0.00 
freq.    3218.58  E(vib)   ...       0.00 
freq.    3218.59  E(vib)   ...       0.00 
freq.    3221.87  E(vib)   ...       0.00 
freq.    3221.88  E(vib)   ...       0.00 
freq.    3229.78  E(vib)   ...       0.00 
freq.    3229.82  E(vib)   ...       0.00 
freq.    3234.13  E(vib)   ...       0.00 
freq.    3234.16  E(vib)   ...       0.00 
freq.    3238.13  E(vib)   ...       0.00 
freq.    3238.17  E(vib)   ...       0.00 

------------
INNER ENERGY
------------

The inner energy is: U= E(el) + E(ZPE) + E(vib) + E(rot) + E(trans)
    E(el)   - is the total energy from the electronic structure calculation
              = E(kin-el) + E(nuc-el) + E(el-el) + E(nuc-nuc)
    E(ZPE)  - the the zero temperature vibrational energy from the frequency calculation
    E(vib)  - the the finite temperature correction to E(ZPE) due to population
              of excited vibrational states
    E(rot)  - is the rotational thermal energy
    E(trans)- is the translational thermal energy

Summary of contributions to the inner energy U:
Electronic energy                ...  -2966.27720064 Eh
Zero point energy                ...      0.38202126 Eh     239.72 kcal/mol
Thermal vibrational correction   ...      0.02590837 Eh      16.26 kcal/mol
Thermal rotational correction    ...      0.00141627 Eh       0.89 kcal/mol
Thermal translational correction ...      0.00141627 Eh       0.89 kcal/mol
-----------------------------------------------------------------------
Total thermal energy                  -2965.86643846 Eh


Summary of corrections to the electronic energy:
(perhaps to be used in another calculation)
Total thermal correction                  0.02874092 Eh      18.04 kcal/mol
Non-thermal (ZPE) correction              0.38202126 Eh     239.72 kcal/mol
-----------------------------------------------------------------------
Total correction                          0.41076218 Eh     257.76 kcal/mol


--------
ENTHALPY
--------

The enthalpy is H = U + kB*T
                kB is Boltzmann's constant
Total thermal energy              ...  -2965.86643846 Eh 
Thermal Enthalpy correction       ...      0.00094421 Eh       0.59 kcal/mol
-----------------------------------------------------------------------
Total Enthalpy                    ...  -2965.86549425 Eh


Note: Only C1 symmetry has been detected, increase convergence thresholds 
      if your molecule has a higher symmetry. Symmetry factor of 1.0 is   
      used for the rotational entropy correction. 
 

Note: Rotational entropy computed according to Herzberg 
Infrared and Raman Spectra, Chapter V,1, Van Nostrand Reinhold, 1945 
Point Group:  C1, Symmetry Number:   1  
Rotational constants in cm-1:     0.004914     0.002288     0.002118 

Vibrational entropy computed according to the QRRHO of S. Grimme
Chem.Eur.J. 2012 18 9955 using a reference frequency of 100.0 cm-1


-------
ENTROPY
-------

The entropy contributions are T*S = T*(S(el)+S(vib)+S(rot)+S(trans))
     S(el)   - electronic entropy
     S(vib)  - vibrational entropy
     S(rot)  - rotational entropy
     S(trans)- translational entropy
The entropies will be listed as multiplied by the temperature to get
units of energy

Electronic entropy                ...      0.00000000 Eh      0.00 kcal/mol
Vibrational entropy               ...      0.04549848 Eh     28.55 kcal/mol
Rotational entropy                ...      0.01779748 Eh     11.17 kcal/mol
Translational entropy             ...      0.02126037 Eh     13.34 kcal/mol
-----------------------------------------------------------------------
Final entropy term                ...      0.08455633 Eh     53.06 kcal/mol

In case the symmetry of your molecule has not been determined correctly
or in case you have a reason to use a different symmetry number we print 
out the resulting rotational entropy values for sn=1,12:

 non-linear molecules -----------------------------------
|  sn= 1 | S(rot)=       0.01779748 Eh     11.17 kcal/mol|
|  sn= 2 | S(rot)=       0.01714302 Eh     10.76 kcal/mol|
|  sn= 3 | S(rot)=       0.01676019 Eh     10.52 kcal/mol|
|  sn= 4 | S(rot)=       0.01648857 Eh     10.35 kcal/mol|
|  sn= 5 | S(rot)=       0.01627788 Eh     10.21 kcal/mol|
|  sn= 6 | S(rot)=       0.01610573 Eh     10.11 kcal/mol|
|  sn= 7 | S(rot)=       0.01596019 Eh     10.02 kcal/mol|
|  sn= 8 | S(rot)=       0.01583411 Eh      9.94 kcal/mol|
|  sn= 9 | S(rot)=       0.01572290 Eh      9.87 kcal/mol|
|  sn=10 | S(rot)=       0.01562342 Eh      9.80 kcal/mol|
|  sn=11 | S(rot)=       0.01553343 Eh      9.75 kcal/mol|
|  sn=12 | S(rot)=       0.01545128 Eh      9.70 kcal/mol|
 linear molecules ---------------------------------------
|  Dinfh | S(rot)=       0.01113947 Eh      6.99 kcal/mol|
|  Cinfv | S(rot)=       0.01179393 Eh      7.40 kcal/mol|
 --------------------------------------------------------


-------------------
GIBBS FREE ENERGY
-------------------

The Gibbs free energy is G = H - T*S

Total enthalpy                    ...  -2965.86549425 Eh 
Total entropy correction          ...     -0.08455633 Eh    -53.06 kcal/mol
-----------------------------------------------------------------------
Final Gibbs free energy         ...  -2965.95005058 Eh

For completeness - the Gibbs free energy minus the electronic energy
G-E(el)                           ...      0.32715006 Eh    205.29 kcal/mol


Maximum memory used throughout the entire PROP-calculation: 639.2 MB

--------------------------------
SUGGESTED CITATIONS FOR THIS RUN
--------------------------------

Below you find a list of papers that are relevant to this ORCA run
We neither can nor want to force you to cite these papers, but we appreciate if you do
You receive ORCA, which is the product of decades of hard work by many enthusiastic individuals, for free
The only thing we kindly ask in return is that you cite our papers,
We deeply appreciate it, if you show your appreciation for ORCA by not just citing the generic ORCA reference.

Please note that relegating all ORCA citations to the supporting information does *not* help us.
SI sections are not indexed - citations you put there will not count into any citation statistics
But we need these citations in order to attract the funding resources that allow us to do what we are doing

Therefore, if you are a happy ORCA user, please consider citing a few of the papers listed below in the main body of your paper

In addition to the list printed below, the program has created the file input.bibtex that contains the list in bibtex format
You can import this file easily into all common literature databanks and citation aid programs


List of essential papers. We consider these as the minimum necessary citations

  1. Neese,F.
     Software update: the ORCA program system, version 5.0
     WIRES Comput. Molec. Sci., 2022 12(1)e1606
     doi.org/10.1002/wcms.1606

List of papers to cite with high priority. The work reported in these papers was absolutely
necessary for this run to complete.
Our perspective: the developers of density functionals and basis sets usually get cited in chemistry papers
Good! But without the algorithms to do something with them, the functionals or basis sets would not do anything.
Hence, in our opinion, the algorithm design and method developments papers are equally worthy of getting cited

  1. Neese,F.
     An improvement of the resolution of the identity approximation for the formation of the Coulomb matrix
     J. Comp. Chem., 2003 24(14)1740-1747
     doi.org/10.1002/jcc.10318
  2. Neese,F.; Wennmohs,F.; Hansen,A.; Becker,U.
     Efficient, approximate and parallel Hartree-Fock and hybrid DFT calculations. A 'chain-of-spheres' algorithm for the Hartree-Fock exchange
     Chem. Phys., 2009 356(1-3)98-109
     doi.org/10.1016/j.chemphys.2008.10.036
  3. Bykov,D.; Petrenko,T.; Izsak,R.; Kossmann,S.; Becker,U.; Valeev,E.; Neese,F.
     Efficient implementation of the analytic second derivatives of Hartree-Fock and hybrid DFT energies: a detailed analysis of different approximations
     Molec. Phys., 2015 113 1961-1977
     doi.org/10.1080/00268976.2015.1025114
  4. Helmich-Paris,B.; de Souza,B.; Neese,F.; Izsák,R.
     An improved chain of spheres for exchange algorithm
     J. Chem. Phys., 2021 155 104109
     doi.org/doi: 10.1063/5.0058766.
  5. Neese,F.
     The SHARK Integral Generation and Digestion System
     J. Comp. Chem., 2022  1-16
     doi.org/10.1002/jcc.26942
  6. Grimme,S.; Antony,J.; Ehrlich,S.; Krieg,H.
     A consistent and accurate ab initio parametrization of density functional dispersion correction (DFT-D) for the 94 elements H-Pu
     J. Chem. Phys., 2010 132 154104
     doi.org/10.1063/1.3382344
  7. Grimme,S.; Ehrlich,S.; Goerigk,L.
     Effect of the damping function in dispersion corrected density functional theory
     J. Comput. Chem., 2011 32(7)1456-1465
     doi.org/10.1002/jcc.21759

List of suggested additional citations. These are papers that are important in the 'surrounding' of 
of this run, or papers that preceded the highly important papers. If you like your results we are grateful for a citation.

  1. Izsak,R.; Neese,F.
     An overlap fitted chain of spheres exchange method
     J. Chem. Phys., 2011 135 144105
     doi.org/10.1063/1.3646921
  2. Izsak,R.; Hansen,A.; Neese,F.
     The resolution of identity and chain of spheres approximations for the LPNO-CCSD singles Fock term
     Molec. Phys., 2012 110 2413-2417
     doi.org/10.1080/00268976.2012.687466
  3. Neese,F.
     The ORCA program system
     WIRES Comput. Molec. Sci., 2012 2(1)73-78
     doi.org/10.1002/wcms.81
  4. Izsak,R.; Neese,F.; Klopper,W.
     Robust fitting techniques in the chain of spheres approximation to the Fock exchange: The role of the complementary space
     J. Chem. Phys., 2013 139 
     doi.org/10.1063/1.4819264
  5. Neese,F.
     Software update: the ORCA program system, version 4.0
     WIRES Comput. Molec. Sci., 2018 8(1)1-6
     doi.org/10.1002/wcms.1327
  6. Neese,F.; Wennmohs,F.; Becker,U.; Riplinger,C.
     The ORCA quantum chemistry program package
     J. Chem. Phys., 2020 152 Art. No. L224108
     doi.org/10.1063/5.0004608

List of optional additional citations

  1. Neese,F.
     Approximate second-order SCF convergence for spin unrestricted wavefunctions
     Chem. Phys. Lett., 2000 325(1-3)93-98
     doi.org/10.1016/s0009-2614(00)00662-x

Timings for individual modules:

Sum of individual times          ...    12352.222 sec (= 205.870 min)
Startup calculation              ...      101.729 sec (=   1.695 min)   0.8 %
SCF iterations                   ...     4003.008 sec (=  66.717 min)  32.4 %
Property integrals               ...     1552.137 sec (=  25.869 min)  12.6 %
SCF Response                     ...     4247.264 sec (=  70.788 min)  34.4 %
Property calculations            ...     1096.106 sec (=  18.268 min)   8.9 %
SCF Gradient evaluation          ...     1349.901 sec (=  22.498 min)  10.9 %
Geometry relaxation              ...        2.077 sec (=   0.035 min)   0.0 %
                             ****ORCA TERMINATED NORMALLY****
TOTAL RUN TIME: 0 days 3 hours 25 minutes 59 seconds 55 msec
