✅ ORCA running with approved resources:
   Tasks: 8/16
   Nodes: 1/1
   Scratch: /tmp/orca_alan_1445

                                 *****************
                                 * O   R   C   A *
                                 *****************

                                            #,                                       
                                            ###                                      
                                            ####                                     
                                            #####                                    
                                            ######                                   
                                           ########,                                 
                                     ,,################,,,,,                         
                               ,,#################################,,                 
                          ,,##########################################,,             
                       ,#########################################, ''#####,          
                    ,#############################################,,   '####,        
                  ,##################################################,,,,####,       
                ,###########''''           ''''###############################       
              ,#####''   ,,,,##########,,,,          '''####'''          '####       
            ,##' ,,,,###########################,,,                        '##       
           ' ,,###''''                  '''############,,,                           
         ,,##''                                '''############,,,,        ,,,,,,###''
      ,#''                                            '''#######################'''  
     '                                                          ''''####''''         
             ,#######,   #######,   ,#######,      ##                                
            ,#'     '#,  ##    ##  ,#'     '#,    #''#        ,####,   ,####,        
            ##       ##  ##   ,#'  ##            #'  '#       #'       #'  '#        
            ##       ##  #######   ##           ,######,      #####,   #    #        
            '#,     ,#'  ##    ##  '#,     ,#' ,#      #,     #,   #   #,  ,#        
             '#######'   ##     ##  '#######'  #'      '#     '####' # '####'        



                #########################################################
                #                        -***-                          #
                #          Department of theory and spectroscopy        #
                #                                                       #
                #                      Frank Neese                      #
                #                                                       #
                #     Directorship, Architecture, Infrastructure        #
                #                    SHARK, DRIVERS                     #
                #        Core code/Algorithms in most modules           #
                #                                                       #
                #        Max Planck Institute fuer Kohlenforschung      #
                #                Kaiser Wilhelm Platz 1                 #
                #                 D-45470 Muelheim/Ruhr                 #
                #                      Germany                          #
                #                                                       #
                #                  All rights reserved                  #
                #                        -***-                          #
                #########################################################


                         Program Version 6.0.1  -  RELEASE   -


 With contributions from (in alphabetic order):
[Max-Planck-Institut fuer Kohlenforschung]                               
  Daniel Aravena         : Magnetic Suceptibility                        
  Michael Atanasov       : Ab Initio Ligand Field Theory (pilot matlab implementation)
  Alexander A. Auer      : GIAO ZORA, VPT2 properties, NMR spectrum      
  Ute Becker             : All parallelization in ORCA, NUMFREQ, NUMCALC 
  Giovanni Bistoni       : ED, misc. LED, open-shell LED, HFLD           
  Martin Brehm           : Molecular dynamics                            
  Dmytro Bykov           : pre 5.0 version of the SCF Hessian            
  Marcos Casanova-Páez   : Triplet and SCS-CIS(D). UHF-(DLPNO)-IP/EA/STEOM-CCSD. UHF-CVS-IP/STEOM-CCSD   
  Vijay G. Chilkuri      : MRCI spin determinant printing, contributions to CSF-ICE 
  Pauline Colinet        : FMM embedding                                 
  Dipayan Datta          : RHF DLPNO-CCSD density                        
  Achintya Kumar Dutta   : EOM-CC, STEOM-CC                              
  Nicolas Foglia         : Exact transition moments, OPA infrastructure, MCD improvements    
  Dmitry Ganyushin       : Spin-Orbit,Spin-Spin,Magnetic field MRCI      
  Miquel Garcia-Rates    : C-PCM and meta-GGA Hessian, CCSD/C-PCM, Gaussian charge scheme 
  Tiago L. C. Gouveia    : GS-ROHF, GS-ROCIS                             
  Yang Guo               : DLPNO-NEVPT2, F12-NEVPT2, CIM, IAO-localization        
  Andreas Hansen         : Spin unrestricted coupled pair/coupled cluster methods 
  Ingolf Harden          : AUTO-CI MPn and infrastructure                
  Benjamin Helmich-Paris : MC-RPA, TRAH-(SCF,CASSCF), AVAS, COSX integrals, SCF dyn. polar. 
  Lee Huntington         : MR-EOM, pCC                                   
  Robert Izsak           : Overlap fitted RIJCOSX, COSX-SCS-MP3, EOM     
  Riya Kayal             : Wick's Theorem for AUTO-CI, AUTO-CI UHF-CCSDT 
  Emily Kempfer          : AUTO-CI, RHF CISDT and CCSDT                  
  Christian Kollmar      : KDIIS, OOCD, Brueckner-CCSD(T), CCSD density, CASPT2, CASPT2-K, improved NEVPT2 
  Axel Koslowski         : Symmetry handling                             
  Simone Kossmann        : meta-GGA functionals, TD-DFT gradient, OOMP2, (MP2 Hessian; deprecated post 5.0) 
  Lucas Lang             : DCDCAS                                        
  Marvin Lechner         : AUTO-CI (C++ implementation), FIC-MRCC        
  Spencer Leger          : CASSCF response                               
  Dagmar Lenk            : GEPOL surface, SMD, ORCA-2-JSON               
  Dimitrios Liakos       : Extrapolation schemes; Compound Job, initial MDCI parallelization 
  Dimitrios Manganas     : Further ROCIS development; embedding schemes. LFT, Crystal Embedding 
  Dimitrios Pantazis     : SARC Basis sets                               
  Anastasios Papadopoulos: AUTO-CI, single reference methods and gradients 
  Taras Petrenko         : pre 6.0 DFT Hessian and TD-DFT gradient, (ASA, deprecated), ECA, 1-Electron XAS/XES, NRVS 
  Peter Pinski           : DLPNO-MP2, DLPNO-MP2 Gradient                 
  Christoph Reimann      : Effective Core Potentials                     
  Marius Retegan         : Local ZFS, SOC                                
  Christoph Riplinger    : Optimizer, TS searches, QM/MM, DLPNO-CCSD(T), (RO)-DLPNO pert. Triples 
  Michael Roemelt        : Original ROCIS implementation                 
  Masaaki Saitow         : Open-shell DLPNO-CCSD energy and density      
  Barbara Sandhoefer     : DKH picture change effects                    
  Kantharuban Sivalingam : CASSCF convergence/infrastructure, NEVPT2 and variants, FIC-MRCI 
  Bernardo de Souza      : ESD, SOC TD-DFT                               
  Georgi L. Stoychev     : AutoAux, RI-MP2 NMR, DLPNO-MP2 response, X2C  
  Van Anh Tran           : RI-MP2 g-tensors                              
  Willem Van den Heuvel  : Paramagnetic NMR                              
  Zikuan Wang            : NOTCH, Electric field optimization            
  Frank Wennmohs         : Technical directorship and infrastructure     
  Hang Xu                : AUTO-CI-Response properties                   
                                                                         
[FACCTs GmbH]                                                            
  Markus Bursch, Miquel Garcia-Rates, Christoph Riplinger, Bernardo de Souza, Georgi L. Stoychev 
                                                                 
  APM, Basis sets (HGBS, AHGBS, def-TZVP (Ac-Lr), def2-XVPD (La-Lu)), CI-OPT, improved COSX, DLPNO-Multilevel,           
  DOCKER, DRACO, updates on ESD, GOAT, IRC, LR-CPCM, MBIS, meta-GGA TD-DFT gradient, ML-optimized integration grids, 
  MM, NACMEs, nearIR, NEB, NEB-TS, NL-DFT gradient (VV10), 2- and 3-layer-ONIOM, interface openCOSMO-RS, QMMM,   
  Crystal-QMMM, SF, symmetry and pop. for TD-DFT, r2SCAN hybrids, SOLVATOR                                   
                                                                         
[Other institutions]                                                     
  V. Asgeirsson          : NEB                                           
  Christoph Bannwarth    : sTDA-DFT, sTD-DFT, PBEh-3c, B97-3c, D3        
  Sebastian Ehlert       : rSCAN, r2SCAN, r2SCAN-3c, D4, dhf basis sets  
  Marvin Friede          : D4 for Fr, Ra, Ac-Lr                          
  Lars Goerigk           : TD-DFT with DH, B97 family of functionals     
  Stefan Grimme          : VdW corrections, initial TS optimization, DFT functionals, gCP, sTDA/sTD-DF 
  Waldemar Hujo          : DFT-NL                                        
  H. Jonsson             : NEB                                           
  Holger Kruse           : gCP                                           
  Marcel Mueller         : wB97X-3c, vDZP basis set                      
  Hagen Neugebauer       : wr2SCAN                                       
  Tobias Risthaus        : range-separated hybrid DFT                    
  Lukas Wittmann         : regularized MP2, r2SCAN double-hybrids, wr2SCAN        
                                                                         
We gratefully acknowledge several colleagues who have allowed us to      
interface, adapt or use parts of their codes:                            
  Ed Valeev, F. Pavosevic, A. Kumar             : LibInt (2-el integral package), F12 methods 
  Garnet Chan, S. Sharma, J. Yang, R. Olivares  : DMRG                   
  Ulf Ekstrom                                   : XCFun DFT Library      
  Mihaly Kallay                                 : mrcc  (arbitrary order and MRCC methods)
  Frank Weinhold                                : gennbo (NPA and NBO analysis)           
  Simon Mueller                                 : openCOSMO-RS                            
  Christopher J. Cramer and Donald G. Truhlar   : smd solvation model                     
  S Lehtola, MJT Oliveira, MAL Marques          : LibXC Library                           
  Liviu Ungur et al                             : ANISO software                          


 Your calculation uses the libint2 library for the computation of 2-el integrals
 For citations please refer to: http://libint.valeyev.net

 Your ORCA version has been built with support for libXC version: 6.2.2
 For citations please refer to: https://libxc.gitlab.io

 This ORCA versions uses:
   CBLAS   interface :  Fast vector & matrix operations
   LAPACKE interface :  Fast linear algebra routines
   SCALAPACK package :  Parallel linear algebra routines
   Shared memory     :  Shared parallel matrices
   BLAS/LAPACK       :  OpenBLAS 0.3.27  USE64BITINT DYNAMIC_ARCH NO_AFFINITY Haswell SINGLE_THREADED
        Core in use  :  Haswell
   Copyright (c) 2011-2014, The OpenBLAS Project


Your calculation utilizes the atom-pairwise dispersion correction
with the Becke-Johnson damping scheme (D3BJ)


================================================================================

----- Orbital basis set information -----
Your calculation utilizes the basis: def2-TZVP
   F. Weigend and R. Ahlrichs, Phys. Chem. Chem. Phys. 7, 3297 (2005).

----- AuxJ basis set information -----
Your calculation utilizes the auxiliary basis: def2/J
   F. Weigend, Phys. Chem. Chem. Phys. 8, 1057 (2006).

================================================================================
                                        WARNINGS
                       Please study these warnings very carefully!
================================================================================


WARNING: your system is open-shell and RHF/RKS was chosen
  ===> : WILL SWITCH to UHF/UKS


WARNING: Geometry Optimization
  ===> : Switching off AutoStart
         For restart on a previous wavefunction, please use MOREAD

================================================================================
                                       INPUT FILE
================================================================================
NAME = input.inp
|  1> !PBE0 D3BJ def2-TZVP def2/J opt Freq
|  2> 
|  3> %scf
|  4>    MaxIter 1000
|  5> end
|  6> 
|  7> %geom
|  8>    MaxIter 1000
|  9> end
| 10> 
| 11> %pal
| 12>    nprocs 8
| 13> end
| 14> 
| 15> * xyz 0 5
| 16> C    7.521580    8.678560    3.225534
| 17> C   13.292836    8.678560    2.232222
| 18> C    7.947578    7.859576    2.147081
| 19> C   12.866838    7.859576    3.310675
| 20> C    6.987337    7.026349    1.542362
| 21> C   13.827080    7.026349    3.915394
| 22> H    7.233554    6.477096    0.833945
| 23> H   13.580862    6.477096    4.623811
| 24> C    5.696191    7.017447    1.988806
| 25> C   15.118225    7.017447    3.468950
| 26> H    5.064362    6.477096    1.570742
| 27> H   15.750054    6.477096    3.887014
| 28> C    5.325072    7.808835    3.058527
| 29> C   15.489344    7.808835    2.399230
| 30> C    6.228617    8.631380    3.700359
| 31> C   14.585800    8.631380    1.757398
| 32> N    3.955510    7.764325    3.535535
| 33> N   16.858907    7.764325    1.922222
| 34> O    9.186534    7.888953    1.756197
| 35> O   11.627882    7.888953    3.701560
| 36> O    3.128603    7.175903    2.829301
| 37> O   17.685813    7.175903    2.628455
| 38> O    3.679628    8.306457    4.601980
| 39> O   17.134788    8.306457    0.855776
| 40> N    8.549912    9.486862    3.726884
| 41> N   12.264505    9.486862    1.730873
| 42> H    5.971815    9.141464    4.433881
| 43> H   14.842601    9.141464    1.023875
| 44> C    8.457323   10.322760    4.680572
| 45> C   12.357094   10.322760    0.777185
| 46> H    7.652483   10.458070    5.125925
| 47> C    9.654226   11.061626    5.051699
| 48> C   11.160190   11.061626    0.406057
| 49> H   13.161934   10.458070    0.331832
| 50> N   10.733794   10.825723    4.265782
| 51> C    9.696663   11.919779    6.117053
| 52> C   11.117754   11.919779   -0.659297
| 53> N   10.080623   10.825723    1.191974
| 54> C   11.861558   11.474679    4.577966
| 55> H    8.941379   12.055089    6.643181
| 56> C   10.878130   12.586538    6.400857
| 57> H   11.873037   12.055089   -1.185425
| 58> C    9.936287   12.586538   -0.943100
| 59> C    8.952859   11.474679    0.879790
| 60> H   12.616250   11.317113    4.057296
| 61> C   11.968193   12.353306    5.613848
| 62> H   10.926371   13.181192    7.113640
| 63> C    8.846224   12.353306   -0.156092
| 64> H    9.888045   13.181192   -1.655883
| 65> H    8.198167   11.317113    1.400460
| 66> H   12.773749   12.787724    5.783039
| 67> H    8.040667   12.787724   -0.325282
| 68> Fe   10.407208    9.252739    2.728878
| 69> *
| 70> 
| 71>                          ****END OF INPUT****
================================================================================

                       *****************************
                       * Geometry Optimization Run *
                       *****************************

Geometry optimization settings:
Update method            Update   .... BFGS
Choice of coordinates    CoordSys .... (2022) Redundant Internals
Initial Hessian          InHess   .... Almloef's Model
Max. no of cycles        MaxIter  .... 1000

Convergence Tolerances:
Energy Change            TolE     ....  5.0000e-06 Eh
Max. Gradient            TolMAXG  ....  3.0000e-04 Eh/bohr
RMS Gradient             TolRMSG  ....  1.0000e-04 Eh/bohr
Max. Displacement        TolMAXD  ....  4.0000e-03 bohr
RMS Displacement         TolRMSD  ....  2.0000e-03 bohr
Strict Convergence                .... False

------------------------------------------------------------------------------
                        ORCA OPTIMIZATION COORDINATE SETUP
------------------------------------------------------------------------------

The optimization will be done in redundant internal coordinates (2022)
Making redundant internal coordinates   ...  (2022 redundants) done
Evaluating the initial hessian          ...  (Almloef) done
Evaluating the coordinates              ...  done
Calculating the B-matrix                .... done
Calculating the G-matrix                .... done
Diagonalizing the G-matrix              .... done
Small eigenvalue found = 9.927e-03
Small eigenvalue found = 1.041e-02
Small eigenvalue found = 1.364e-02
Small eigenvalue found = 1.591e-02
Small eigenvalue found = 1.976e-02
The first mode is                       ....  184
The number of degrees of freedom        ....  153

    -----------------------------------------------------------------
                    Redundant Internal Coordinates


    -----------------------------------------------------------------
         Definition                    Initial Value    Approx d2E/dq
    -----------------------------------------------------------------
      1. B(C   2,C   0)                  1.4196         0.560416   
      2. B(C   3,C   1)                  1.4196         0.560416   
      3. B(C   4,C   2)                  1.4078         0.585161   
      4. B(C   5,C   3)                  1.4078         0.585159   
      5. B(H   6,C   4)                  0.9296         0.649129   
      6. B(H   7,C   5)                  0.9296         0.649128   
      7. B(C   8,C   4)                  1.3662         0.681932   
      8. B(C   9,C   5)                  1.3662         0.681934   
      9. B(H  10,C   8)                  0.9306         0.646815   
     10. B(H  11,C   9)                  0.9306         0.646815   
     11. B(C  12,C   8)                  1.3814         0.644798   
     12. B(C  13,C   9)                  1.3814         0.644800   
     13. B(C  14,C  12)                  1.3802         0.647726   
     14. B(C  14,C   0)                  1.3782         0.652474   
     15. B(C  15,C   1)                  1.3782         0.652472   
     16. B(C  15,C  13)                  1.3802         0.647727   
     17. B(N  16,C  12)                  1.4509         0.447357   
     18. B(N  17,C  13)                  1.4509         0.447356   
     19. B(O  18,C   2)                  1.2995         0.780340   
     20. B(O  19,C   3)                  1.2995         0.780339   
     21. B(O  20,N  16)                  1.2364         0.881067   
     22. B(O  21,N  17)                  1.2364         0.881071   
     23. B(O  22,N  16)                  1.2277         0.909709   
     24. B(O  23,N  17)                  1.2277         0.909707   
     25. B(N  24,C   0)                  1.4008         0.537879   
     26. B(N  25,C   1)                  1.4008         0.537881   
     27. B(H  26,C  14)                  0.9296         0.649089   
     28. B(H  27,C  15)                  0.9296         0.649088   
     29. B(C  28,N  24)                  1.2715         0.864704   
     30. B(C  29,N  25)                  1.2715         0.864704   
     31. B(H  30,C  28)                  0.9297         0.648797   
     32. B(C  31,C  28)                  1.4547         0.492570   
     33. B(C  32,C  29)                  1.4547         0.492569   
     34. B(H  33,C  29)                  0.9297         0.648797   
     35. B(N  34,C  31)                  1.3560         0.634005   
     36. B(C  35,C  31)                  1.3687         0.675770   
     37. B(C  36,C  32)                  1.3687         0.675770   
     38. B(N  37,C  32)                  1.3560         0.634007   
     39. B(C  38,N  34)                  1.3381         0.677193   
     40. B(H  39,C  35)                  0.9304         0.647315   
     41. B(C  40,C  35)                  1.3860         0.634062   
     42. B(H  41,C  36)                  0.9304         0.647317   
     43. B(C  42,C  36)                  1.3860         0.634062   
     44. B(C  43,N  37)                  1.3381         0.677193   
     45. B(H  44,C  38)                  0.9303         0.647428   
     46. B(C  45,C  40)                  1.3646         0.686010   
     47. B(C  45,C  38)                  1.3625         0.691213   
     48. B(H  46,C  40)                  0.9295         0.649329   
     49. B(C  47,C  43)                  1.3625         0.691213   
     50. B(C  47,C  42)                  1.3646         0.686011   
     51. B(H  48,C  42)                  0.9295         0.649329   
     52. B(H  49,C  43)                  0.9303         0.647428   
     53. B(H  50,C  45)                  0.9307         0.646431   
     54. B(H  51,C  47)                  0.9307         0.646430   
     55. B(Fe 52,N  37)                  2.2233         0.265181   
     56. B(Fe 52,N  34)                  2.2233         0.265181   
     57. B(Fe 52,N  25)                  2.1214         0.385552   
     58. B(Fe 52,N  24)                  2.1214         0.385552   
     59. B(Fe 52,O  19)                  2.0727         0.461108   
     60. B(Fe 52,O  18)                  2.0727         0.461109   
     61. A(C   2,C   0,N  24)          112.6129         0.412903   
     62. A(C  14,C   0,N  24)          125.8142         0.424247   
     63. A(C   2,C   0,C  14)          121.5677         0.430184   
     64. A(C  15,C   1,N  25)          125.8142         0.424248   
     65. A(C   3,C   1,C  15)          121.5676         0.430184   
     66. A(C   3,C   1,N  25)          112.6129         0.412903   
     67. A(C   4,C   2,O  18)          122.3081         0.444827   
     68. A(C   0,C   2,C   4)          117.5860         0.421878   
     69. A(C   0,C   2,O  18)          120.1043         0.441364   
     70. A(C   1,C   3,O  19)          120.1043         0.441364   
     71. A(C   5,C   3,O  19)          122.3081         0.444826   
     72. A(C   1,C   3,C   5)          117.5860         0.421878   
     73. A(C   2,C   4,H   6)          119.7603         0.386640   
     74. A(H   6,C   4,C   8)          119.7025         0.397130   
     75. A(C   2,C   4,C   8)          120.5371         0.436998   
     76. A(C   3,C   5,H   7)          119.7603         0.386639   
     77. A(H   7,C   5,C   9)          119.7026         0.397131   
     78. A(C   3,C   5,C   9)          120.5372         0.436998   
     79. A(C   4,C   8,H  10)          119.9109         0.396881   
     80. A(H  10,C   8,C  12)          119.8765         0.393004   
     81. A(C   4,C   8,C  12)          120.2126         0.444726   
     82. A(H  11,C   9,C  13)          119.8765         0.393004   
     83. A(C   5,C   9,C  13)          120.2126         0.444727   
     84. A(C   5,C   9,H  11)          119.9109         0.396882   
     85. A(C  14,C  12,N  16)          118.9035         0.410021   
     86. A(C   8,C  12,N  16)          119.3792         0.409692   
     87. A(C   8,C  12,C  14)          121.7118         0.440607   
     88. A(C  15,C  13,N  17)          118.9035         0.410021   
     89. A(C   9,C  13,C  15)          121.7118         0.440607   
     90. A(C   9,C  13,N  17)          119.3792         0.409692   
     91. A(C   0,C  14,H  26)          120.8123         0.394062   
     92. A(C   0,C  14,C  12)          118.3171         0.441550   
     93. A(C  12,C  14,H  26)          120.8706         0.393558   
     94. A(C   1,C  15,H  27)          120.8122         0.394061   
     95. A(C   1,C  15,C  13)          118.3171         0.441550   
     96. A(C  13,C  15,H  27)          120.8707         0.393558   
     97. A(C  12,N  16,O  22)          118.9555         0.429936   
     98. A(C  12,N  16,O  20)          117.2639         0.427476   
     99. A(O  20,N  16,O  22)          123.7804         0.483126   
    100. A(C  13,N  17,O  21)          117.2640         0.427476   
    101. A(O  21,N  17,O  23)          123.7805         0.483126   
    102. A(C  13,N  17,O  23)          118.9554         0.429935   
    103. A(C   2,O  18,Fe 52)          115.7988         0.476110   
    104. A(C   3,O  19,Fe 52)          115.7988         0.476109   
    105. A(C   0,N  24,Fe 52)          114.2463         0.430717   
    106. A(C   0,N  24,C  28)          126.4645         0.443372   
    107. A(C  28,N  24,Fe 52)          119.2845         0.469482   
    108. A(C   1,N  25,Fe 52)          114.2463         0.430717   
    109. A(C   1,N  25,C  29)          126.4645         0.443372   
    110. A(C  29,N  25,Fe 52)          119.2845         0.469482   
    111. A(H  30,C  28,C  31)          121.0721         0.375226   
    112. A(N  24,C  28,C  31)          117.7313         0.439266   
    113. A(N  24,C  28,H  30)          121.1966         0.411431   
    114. A(C  32,C  29,H  33)          121.0721         0.375226   
    115. A(N  25,C  29,H  33)          121.1966         0.411431   
    116. A(N  25,C  29,C  32)          117.7313         0.439265   
    117. A(C  28,C  31,C  35)          122.8577         0.423005   
    118. A(N  34,C  31,C  35)          122.3802         0.439733   
    119. A(C  28,C  31,N  34)          114.7596         0.415507   
    120. A(C  36,C  32,N  37)          122.3803         0.439733   
    121. A(C  29,C  32,N  37)          114.7595         0.415507   
    122. A(C  29,C  32,C  36)          122.8577         0.423004   
    123. A(C  31,N  34,C  38)          116.8339         0.437012   
    124. A(C  38,N  34,Fe 52)          128.9187         0.419764   
    125. A(C  31,N  34,Fe 52)          114.0030         0.414867   
    126. A(H  39,C  35,C  40)          120.4149         0.391904   
    127. A(C  31,C  35,C  40)          119.1734         0.442650   
    128. A(C  31,C  35,H  39)          120.4117         0.396303   
    129. A(H  41,C  36,C  42)          120.4149         0.391904   
    130. A(C  32,C  36,C  42)          119.1733         0.442650   
    131. A(C  32,C  36,H  41)          120.4117         0.396303   
    132. A(C  32,N  37,Fe 52)          114.0030         0.414867   
    133. A(C  43,N  37,Fe 52)          128.9187         0.419764   
    134. A(C  32,N  37,C  43)          116.8339         0.437013   
    135. A(H  44,C  38,C  45)          118.1146         0.397891   
    136. A(N  34,C  38,C  45)          123.7862         0.446829   
    137. A(N  34,C  38,H  44)          118.0992         0.393932   
    138. A(C  45,C  40,H  46)          120.6743         0.397568   
    139. A(C  35,C  40,H  46)          120.5988         0.392117   
    140. A(C  35,C  40,C  45)          118.7268         0.443856   
    141. A(C  47,C  42,H  48)          120.6743         0.397568   
    142. A(C  36,C  42,H  48)          120.5989         0.392117   
    143. A(C  36,C  42,C  47)          118.7269         0.443856   
    144. A(C  47,C  43,H  49)          118.1146         0.397891   
    145. A(N  37,C  43,H  49)          118.0992         0.393932   
    146. A(N  37,C  43,C  47)          123.7862         0.446829   
    147. A(C  40,C  45,H  50)          120.4496         0.397256   
    148. A(C  38,C  45,H  50)          120.4597         0.397783   
    149. A(C  38,C  45,C  40)          119.0906         0.450855   
    150. A(C  43,C  47,H  51)          120.4596         0.397783   
    151. A(C  42,C  47,H  51)          120.4497         0.397256   
    152. A(C  42,C  47,C  43)          119.0906         0.450855   
    153. A(N  25,Fe 52,N  37)           74.0569         0.426095   
    154. A(N  24,Fe 52,N  37)           96.8067         0.426095   
    155. A(O  19,Fe 52,N  37)          151.2152         0.440029   
    156. A(O  18,Fe 52,N  37)           93.1303         0.440029   
    157. A(N  25,Fe 52,N  34)           96.8067         0.426095   
    158. A(N  24,Fe 52,N  34)           74.0569         0.426095   
    159. A(O  19,Fe 52,N  34)           93.1303         0.440029   
    160. A(O  18,Fe 52,N  34)          151.2152         0.440029   
    161. A(N  24,Fe 52,N  25)          167.3276         0.455895   
    162. A(O  19,Fe 52,N  25)           77.1604         0.471061   
    163. A(O  18,Fe 52,N  25)          111.5587         0.471061   
    164. A(O  19,Fe 52,N  24)          111.5586         0.471061   
    165. A(O  18,Fe 52,N  24)           77.1604         0.471061   
    166. A(N  34,Fe 52,N  37)           89.9357         0.398716   
    167. A(O  18,Fe 52,O  19)           97.7085         0.486854   
    168. D(O  18,C   2,C   0,N  24)      1.9066         0.021514   
    169. D(C   4,C   2,C   0,N  24)   -178.5419         0.021514   
    170. D(O  18,C   2,C   0,C  14)   -177.3071         0.021514   
    171. D(C   4,C   2,C   0,C  14)      2.2445         0.021514   
    172. D(C   5,C   3,C   1,N  25)   -178.5418         0.021514   
    173. D(O  19,C   3,C   1,C  15)   -177.3072         0.021514   
    174. D(O  19,C   3,C   1,N  25)      1.9066         0.021514   
    175. D(C   5,C   3,C   1,C  15)      2.2444         0.021514   
    176. D(C   8,C   4,C   2,O  18)    179.5327         0.023545   
    177. D(C   8,C   4,C   2,C   0)     -0.0082         0.023545   
    178. D(H   6,C   4,C   2,C   0)   -179.9589         0.023545   
    179. D(H   6,C   4,C   2,O  18)     -0.4179         0.023545   
    180. D(C   9,C   5,C   3,O  19)    179.5327         0.023545   
    181. D(H   7,C   5,C   3,C   1)   -179.9589         0.023545   
    182. D(C   9,C   5,C   3,C   1)     -0.0083         0.023545   
    183. D(H   7,C   5,C   3,O  19)     -0.4179         0.023545   
    184. D(C  12,C   8,C   4,C   2)     -1.2884         0.032612   
    185. D(H  10,C   8,C   4,H   6)     -1.3821         0.032612   
    186. D(H  10,C   8,C   4,C   2)    178.6672         0.032612   
    187. D(C  12,C   8,C   4,H   6)    178.6623         0.032612   
    188. D(C  13,C   9,C   5,H   7)    178.6623         0.032612   
    189. D(C  13,C   9,C   5,C   3)     -1.2884         0.032612   
    190. D(H  11,C   9,C   5,H   7)     -1.3822         0.032612   
    191. D(H  11,C   9,C   5,C   3)    178.6672         0.032612   
    192. D(N  16,C  12,C   8,C   4)   -178.7173         0.028916   
    193. D(C  14,C  12,C   8,H  10)   -179.5364         0.028916   
    194. D(C  14,C  12,C   8,C   4)      0.4192         0.028916   
    195. D(N  16,C  12,C   8,H  10)      1.3271         0.028916   
    196. D(C  15,C  13,C   9,H  11)   -179.5364         0.028916   
    197. D(N  17,C  13,C   9,C   5)   -178.7173         0.028916   
    198. D(C  15,C  13,C   9,C   5)      0.4192         0.028916   
    199. D(N  17,C  13,C   9,H  11)      1.3271         0.028916   
    200. D(C  12,C  14,C   0,N  24)    177.8015         0.029658   
    201. D(H  26,C  14,C   0,C   2)    176.9650         0.029658   
    202. D(C   0,C  14,C  12,C   8)      1.7584         0.029198   
    203. D(C   0,C  14,C  12,N  16)   -179.1011         0.029198   
    204. D(H  26,C  14,C  12,C   8)   -178.3002         0.029198   
    205. D(H  26,C  14,C  12,N  16)      0.8402         0.029198   
    206. D(C  12,C  14,C   0,C   2)     -3.0936         0.029658   
    207. D(H  26,C  14,C   0,N  24)     -2.1399         0.029658   
    208. D(H  27,C  15,C  13,N  17)      0.8403         0.029198   
    209. D(C   1,C  15,C  13,N  17)   -179.1011         0.029198   
    210. D(C   1,C  15,C  13,C   9)      1.7584         0.029198   
    211. D(H  27,C  15,C   1,N  25)     -2.1400         0.029657   
    212. D(H  27,C  15,C   1,C   3)    176.9649         0.029657   
    213. D(H  27,C  15,C  13,C   9)   -178.3001         0.029198   
    214. D(C  13,C  15,C   1,C   3)     -3.0936         0.029657   
    215. D(C  13,C  15,C   1,N  25)    177.8014         0.029657   
    216. D(O  22,N  16,C  12,C  14)    -10.1583         0.015760   
    217. D(O  22,N  16,C  12,C   8)    169.0026         0.015760   
    218. D(O  20,N  16,C  12,C  14)    169.7033         0.015760   
    219. D(O  20,N  16,C  12,C   8)    -11.1358         0.015760   
    220. D(O  23,N  17,C  13,C  15)    -10.1584         0.015760   
    221. D(O  23,N  17,C  13,C   9)    169.0025         0.015760   
    222. D(O  21,N  17,C  13,C  15)    169.7033         0.015760   
    223. D(O  21,N  17,C  13,C   9)    -11.1358         0.015760   
    224. D(Fe 52,O  18,C   2,C   4)    177.2643         0.046659   
    225. D(Fe 52,O  18,C   2,C   0)     -3.2060         0.046659   
    226. D(Fe 52,O  19,C   3,C   5)    177.2643         0.046659   
    227. D(Fe 52,O  19,C   3,C   1)     -3.2059         0.046659   
    228. D(Fe 52,N  24,C   0,C   2)      0.2917         0.023007   
    229. D(C  28,N  24,C   0,C  14)     -1.3349         0.023007   
    230. D(C  28,N  24,C   0,C   2)    179.4913         0.023007   
    231. D(Fe 52,N  24,C   0,C  14)    179.4655         0.023007   
    232. D(Fe 52,N  25,C   1,C  15)    179.4656         0.023007   
    233. D(Fe 52,N  25,C   1,C   3)      0.2916         0.023007   
    234. D(C  29,N  25,C   1,C  15)     -1.3348         0.023007   
    235. D(C  29,N  25,C   1,C   3)    179.4913         0.023007   
    236. D(C  31,C  28,N  24,C   0)    179.7223         0.065034   
    237. D(C  31,C  28,N  24,Fe 52)     -1.1144         0.065034   
    238. D(H  30,C  28,N  24,Fe 52)    178.8631         0.065034   
    239. D(H  30,C  28,N  24,C   0)     -0.3002         0.065034   
    240. D(H  33,C  29,N  25,C   1)     -0.3002         0.065034   
    241. D(H  33,C  29,N  25,Fe 52)    178.8631         0.065034   
    242. D(C  32,C  29,N  25,Fe 52)     -1.1144         0.065034   
    243. D(C  32,C  29,N  25,C   1)    179.7223         0.065034   
    244. D(C  35,C  31,C  28,H  30)      4.4846         0.016522   
    245. D(N  34,C  31,C  28,H  30)   -176.0846         0.016522   
    246. D(C  35,C  31,C  28,N  24)   -175.5379         0.016522   
    247. D(N  34,C  31,C  28,N  24)      3.8929         0.016522   
    248. D(N  37,C  32,C  29,H  33)   -176.0846         0.016522   
    249. D(C  36,C  32,C  29,N  25)   -175.5379         0.016522   
    250. D(N  37,C  32,C  29,N  25)      3.8930         0.016522   
    251. D(C  36,C  32,C  29,H  33)      4.4846         0.016522   
    252. D(Fe 52,N  34,C  31,C  35)    174.8784         0.032666   
    253. D(Fe 52,N  34,C  31,C  28)     -4.5554         0.032666   
    254. D(C  38,N  34,C  31,C  35)      0.0458         0.032666   
    255. D(C  38,N  34,C  31,C  28)   -179.3880         0.032666   
    256. D(C  40,C  35,C  31,N  34)      0.7077         0.031980   
    257. D(C  40,C  35,C  31,C  28)   -179.9044         0.031980   
    258. D(H  39,C  35,C  31,N  34)   -179.4086         0.031980   
    259. D(H  39,C  35,C  31,C  28)     -0.0206         0.031980   
    260. D(C  42,C  36,C  32,N  37)      0.7077         0.031980   
    261. D(C  42,C  36,C  32,C  29)   -179.9043         0.031980   
    262. D(H  41,C  36,C  32,N  37)   -179.4086         0.031980   
    263. D(H  41,C  36,C  32,C  29)     -0.0205         0.031980   
    264. D(Fe 52,N  37,C  32,C  36)    174.8784         0.032666   
    265. D(Fe 52,N  37,C  32,C  29)     -4.5555         0.032666   
    266. D(C  43,N  37,C  32,C  36)      0.0458         0.032666   
    267. D(C  43,N  37,C  32,C  29)   -179.3881         0.032666   
    268. D(C  45,C  38,N  34,Fe 52)   -174.7739         0.037705   
    269. D(C  45,C  38,N  34,C  31)     -0.8443         0.037705   
    270. D(H  44,C  38,N  34,Fe 52)      5.2600         0.037705   
    271. D(H  44,C  38,N  34,C  31)    179.1896         0.037705   
    272. D(H  46,C  40,C  35,H  39)     -0.5882         0.027898   
    273. D(H  46,C  40,C  35,C  31)    179.2956         0.027898   
    274. D(C  45,C  40,C  35,H  39)    179.4247         0.027898   
    275. D(C  45,C  40,C  35,C  31)     -0.6915         0.027898   
    276. D(H  48,C  42,C  36,H  41)     -0.5881         0.027898   
    277. D(H  48,C  42,C  36,C  32)    179.2956         0.027898   
    278. D(C  47,C  42,C  36,H  41)    179.4247         0.027898   
    279. D(C  47,C  42,C  36,C  32)     -0.6915         0.027898   
    280. D(H  49,C  43,N  37,Fe 52)      5.2600         0.037705   
    281. D(H  49,C  43,N  37,C  32)    179.1895         0.037705   
    282. D(C  47,C  43,N  37,Fe 52)   -174.7739         0.037705   
    283. D(C  47,C  43,N  37,C  32)     -0.8444         0.037705   
    284. D(H  50,C  45,C  40,H  46)      0.0411         0.033035   
    285. D(H  50,C  45,C  40,C  35)   -179.9718         0.033035   
    286. D(C  38,C  45,C  40,H  46)    179.9678         0.033035   
    287. D(C  38,C  45,C  40,C  35)     -0.0451         0.033035   
    288. D(H  50,C  45,C  38,H  44)      0.7451         0.033579   
    289. D(H  50,C  45,C  38,N  34)   -179.2210         0.033579   
    290. D(C  40,C  45,C  38,H  44)   -179.1815         0.033579   
    291. D(C  40,C  45,C  38,N  34)      0.8524         0.033579   
    292. D(H  51,C  47,C  42,C  36)   -179.9718         0.033035   
    293. D(C  43,C  47,C  42,H  48)    179.9678         0.033035   
    294. D(C  43,C  47,C  42,C  36)     -0.0451         0.033035   
    295. D(H  51,C  47,C  43,H  49)      0.7452         0.033579   
    296. D(H  51,C  47,C  43,N  37)   -179.2209         0.033579   
    297. D(C  42,C  47,C  43,H  49)   -179.1815         0.033579   
    298. D(C  42,C  47,C  43,N  37)      0.8524         0.033579   
    299. D(H  51,C  47,C  42,H  48)      0.0411         0.033035   
    300. D(N  25,Fe 52,N  37,C  32)      3.0568         0.001875   
    301. D(N  24,Fe 52,N  37,C  43)    -11.8407         0.001875   
    302. D(N  24,Fe 52,N  37,C  32)    174.0883         0.001875   
    303. D(O  19,Fe 52,N  37,C  32)      3.7618         0.001875   
    304. D(O  18,Fe 52,N  37,C  43)     65.5908         0.001875   
    305. D(O  18,Fe 52,N  37,C  32)   -108.4802         0.001875   
    306. D(N  25,Fe 52,N  34,C  31)    174.0883         0.001875   
    307. D(N  24,Fe 52,N  34,C  38)    177.1278         0.001875   
    308. D(N  24,Fe 52,N  34,C  31)      3.0568         0.001875   
    309. D(O  19,Fe 52,N  34,C  38)     65.5909         0.001875   
    310. D(O  18,Fe 52,N  34,C  38)    177.8327         0.001875   
    311. D(O  18,Fe 52,N  34,C  31)      3.7617         0.001875   
    312. D(N  34,Fe 52,N  25,C   1)     90.2744         0.002284   
    313. D(N  24,Fe 52,N  25,C   1)    133.3746         0.002284   
    314. D(O  19,Fe 52,N  25,C  29)    179.3391         0.002284   
    315. D(O  19,Fe 52,N  25,C   1)     -1.3989         0.002284   
    316. D(O  18,Fe 52,N  25,C  29)     86.0215         0.002284   
    317. D(O  18,Fe 52,N  25,C   1)    -94.7164         0.002284   
    318. D(N  34,Fe 52,N  24,C   0)    178.2529         0.002284   
    319. D(N  25,Fe 52,N  24,C  28)    -45.8872         0.002284   
    320. D(N  25,Fe 52,N  24,C   0)    133.3748         0.002284   
    321. D(N  24,Fe 52,N  25,C  29)    -45.8875         0.002284   
    322. D(O  19,Fe 52,N  24,C  28)     86.0215         0.002284   
    323. D(O  19,Fe 52,N  24,C   0)    -94.7165         0.002284   
    324. D(O  18,Fe 52,N  24,C  28)    179.3391         0.002284   
    325. D(O  19,Fe 52,N  34,C  31)   -108.4802         0.001875   
    326. D(O  18,Fe 52,N  24,C   0)     -1.3989         0.002284   
    327. D(N  37,Fe 52,O  19,C   3)      1.7443         0.002546   
    328. D(N  34,Fe 52,O  19,C   3)    -93.8341         0.002546   
    329. D(N  25,Fe 52,O  19,C   3)      2.4395         0.002546   
    330. D(N  24,Fe 52,O  19,C   3)   -167.9210         0.002546   
    331. D(O  18,Fe 52,O  19,C   3)    112.8940         0.002546   
    332. D(N  37,Fe 52,O  18,C   2)    -93.8341         0.002546   
    333. D(O  19,Fe 52,N  37,C  43)    177.8328         0.001875   
    334. D(N  34,Fe 52,O  18,C   2)      1.7443         0.002546   
    335. D(N  25,Fe 52,O  18,C   2)   -167.9210         0.002546   
    336. D(N  24,Fe 52,O  18,C   2)      2.4396         0.002546   
    337. D(O  19,Fe 52,O  18,C   2)    112.8940         0.002546   
    -----------------------------------------------------------------

Number of atoms                         .... 53
Number of degrees of freedom            .... 337


         *************************************************************
         *                GEOMETRY OPTIMIZATION CYCLE   1            *
         *************************************************************
---------------------------------
CARTESIAN COORDINATES (ANGSTROEM)
---------------------------------
  C      7.521580    8.678560    3.225534
  C     13.292836    8.678560    2.232222
  C      7.947578    7.859576    2.147081
  C     12.866838    7.859576    3.310675
  C      6.987337    7.026349    1.542362
  C     13.827080    7.026349    3.915394
  H      7.233554    6.477096    0.833945
  H     13.580862    6.477096    4.623811
  C      5.696191    7.017447    1.988806
  C     15.118225    7.017447    3.468950
  H      5.064362    6.477096    1.570742
  H     15.750054    6.477096    3.887014
  C      5.325072    7.808835    3.058527
  C     15.489344    7.808835    2.399230
  C      6.228617    8.631380    3.700359
  C     14.585800    8.631380    1.757398
  N      3.955510    7.764325    3.535535
  N     16.858907    7.764325    1.922222
  O      9.186534    7.888953    1.756197
  O     11.627882    7.888953    3.701560
  O      3.128603    7.175903    2.829301
  O     17.685813    7.175903    2.628455
  O      3.679628    8.306457    4.601980
  O     17.134788    8.306457    0.855776
  N      8.549912    9.486862    3.726884
  N     12.264505    9.486862    1.730873
  H      5.971815    9.141464    4.433881
  H     14.842601    9.141464    1.023875
  C      8.457323   10.322760    4.680572
  C     12.357094   10.322760    0.777185
  H      7.652483   10.458070    5.125925
  C      9.654226   11.061626    5.051699
  C     11.160190   11.061626    0.406057
  H     13.161934   10.458070    0.331832
  N     10.733794   10.825723    4.265782
  C      9.696663   11.919779    6.117053
  C     11.117754   11.919779   -0.659297
  N     10.080623   10.825723    1.191974
  C     11.861558   11.474679    4.577966
  H      8.941379   12.055089    6.643181
  C     10.878130   12.586538    6.400857
  H     11.873037   12.055089   -1.185425
  C      9.936287   12.586538   -0.943100
  C      8.952859   11.474679    0.879790
  H     12.616250   11.317113    4.057296
  C     11.968193   12.353306    5.613848
  H     10.926371   13.181192    7.113640
  C      8.846224   12.353306   -0.156092
  H      9.888045   13.181192   -1.655883
  H      8.198167   11.317113    1.400460
  H     12.773749   12.787724    5.783039
  H      8.040667   12.787724   -0.325282
  Fe    10.407208    9.252739    2.728878

----------------------------
CARTESIAN COORDINATES (A.U.)
----------------------------
  NO LB      ZA    FRAG     MASS         X           Y           Z
   0 C     6.0000    0    12.011   14.213726   16.400102    6.095376
   1 C     6.0000    0    12.011   25.119820   16.400102    4.218288
   2 C     6.0000    0    12.011   15.018746   14.852446    4.057395
   3 C     6.0000    0    12.011   24.314800   14.852446    6.256269
   4 C     6.0000    0    12.011   13.204153   13.277875    2.914642
   5 C     6.0000    0    12.011   26.129394   13.277875    7.399022
   6 H     1.0000    0     1.008   13.669436   12.239938    1.575928
   7 H     1.0000    0     1.008   25.664110   12.239938    8.737736
   8 C     6.0000    0    12.011   10.764241   13.261053    3.758299
   9 C     6.0000    0    12.011   28.569305   13.261053    6.555365
  10 H     1.0000    0     1.008    9.570257   12.239938    2.968272
  11 H     1.0000    0     1.008   29.763289   12.239938    7.345392
  12 C     6.0000    0    12.011   10.062928   14.756560    5.779778
  13 C     6.0000    0    12.011   29.270618   14.756560    4.533888
  14 C     6.0000    0    12.011   11.770380   16.310944    6.992665
  15 C     6.0000    0    12.011   27.563167   16.310944    3.321001
  16 N     7.0000    0    14.007    7.474831   14.672448    6.681193
  17 N     7.0000    0    14.007   31.858717   14.672448    3.632473
  18 O     8.0000    0    15.999   17.360033   14.907961    3.318731
  19 O     8.0000    0    15.999   21.973512   14.907961    6.994935
  20 O     8.0000    0    15.999    5.912203   13.560491    5.346604
  21 O     8.0000    0    15.999   33.421343   13.560491    4.967060
  22 O     8.0000    0    15.999    6.953489   15.696929    8.696482
  23 O     8.0000    0    15.999   32.380057   15.696929    1.617182
  24 N     7.0000    0    14.007   16.156992   17.927571    7.042790
  25 N     7.0000    0    14.007   23.176556   17.927571    3.270876
  26 H     1.0000    0     1.008   11.285095   17.274863    8.378821
  27 H     1.0000    0     1.008   28.048451   17.274863    1.934843
  28 C     6.0000    0    12.011   15.982024   19.507189    8.844999
  29 C     6.0000    0    12.011   23.351523   19.507189    1.468667
  30 H     1.0000    0     1.008   14.461097   19.762888    9.686594
  31 C     6.0000    0    12.011   18.243843   20.903444    9.546328
  32 C     6.0000    0    12.011   21.089703   20.903444    0.767337
  33 H     1.0000    0     1.008   24.872451   19.762888    0.627072
  34 N     7.0000    0    14.007   20.283931   20.457652    8.061160
  35 C     6.0000    0    12.011   18.324037   22.525118   11.559555
  36 C     6.0000    0    12.011   21.009510   22.525118   -1.245891
  37 N     7.0000    0    14.007   19.049617   20.457652    2.252504
  38 C     6.0000    0    12.011   22.415096   21.684001    8.651102
  39 H     1.0000    0     1.008   16.896758   22.780817   12.553793
  40 C     6.0000    0    12.011   20.556687   23.785110   12.095867
  41 H     1.0000    0     1.008   22.436788   22.780817   -2.240129
  42 C     6.0000    0    12.011   18.776861   23.785110   -1.782201
  43 C     6.0000    0    12.011   16.918452   21.684001    1.662562
  44 H     1.0000    0     1.008   23.841257   21.386244    7.667178
  45 C     6.0000    0    12.011   22.616607   23.344365   10.608635
  46 H     1.0000    0     1.008   20.647849   24.908843   13.442831
  47 C     6.0000    0    12.011   16.716941   23.344365   -0.294971
  48 H     1.0000    0     1.008   18.685697   24.908843   -3.129165
  49 H     1.0000    0     1.008   15.492290   21.386244    2.646486
  50 H     1.0000    0     1.008   24.138887   24.165296   10.928360
  51 H     1.0000    0     1.008   15.194659   24.165296   -0.614694
  52 Fe   26.0000    0    55.850   19.666773   17.485143    5.156832

--------------------------------
INTERNAL COORDINATES (ANGSTROEM)
--------------------------------
 C      0   0   0     0.000000000000     0.00000000     0.00000000
 C      1   0   0     5.856113433573     0.00000000     0.00000000
 C      1   2   0     1.419602043345    64.87514626     0.00000000
 C      2   1   3     1.419602043345    64.87514626   259.16666604
 C      3   1   2     1.407840573563   117.58604993   172.69588049
 C      4   2   1     1.407841255630   117.58602165   172.69589095
 H      5   3   1     0.929600083362   119.76034813   180.04108492
 H      6   4   2     0.929600348226   119.76026208   180.04110150
 C      5   3   1     1.366180619119   120.53714816     0.00000000
 C      6   4   2     1.366179674042   120.53716662     0.00000000
 H      9   5   3     0.930572187709   119.91087965   178.66717499
 H     10   6   4     0.930572187709   119.91086960   178.66718602
 C      9   5   3     1.381422200685   120.21260488   358.71157160
 C     10   6   4     1.381421426323   120.21261794   358.71162360
 C      1   2   4     1.378201020314   169.41913746    28.83875640
 C      2   1   3     1.378201613942   169.41919007    28.83870764
 N     13   9   5     1.450936884915   119.37917296   181.28272410
 N     14  10   6     1.450937828831   119.37916659   181.28270181
 O      3   1   2     1.299486544571   120.10429703   353.14434166
 O      4   2   1     1.299486845370   120.10432806   353.14430886
 O     17  13   9     1.236439282573   117.26394392   348.86417904
 O     18  14  10     1.236438042608   117.26395196   348.86419380
 O     17  13   9     1.227730801672   118.95549670   169.00256291
 O     18  14  10     1.227731445594   118.95543678   169.00249775
 N      1   2  16     1.400775016885    48.48849588   219.66274004
 N      2   1   3     1.400773924859    48.48850091    89.99074706
 H     15   1  25     0.929616845127   120.81226473   357.86012164
 H     16   2  26     0.929617357941   120.81216374   357.85996627
 C     25   1   2     1.271541973617   126.46447696   190.10491445
 C     26   2   1     1.271541973617   126.46447552   190.10497382
 H     29  25   1     0.929739488410   121.19657371   359.69981048
 C     29  25   1     1.454728499581   117.73131968   179.72234479
 C     30  26   2     1.454729577467   117.73132750   179.72225936
 H     30  26   2     0.929739488410   121.19657371   359.69976482
 N     32  29  25     1.356017264979   114.75955632     3.89292661
 C     32  29  25     1.368651385742   122.85770102   184.46211657
 C     33  30  26     1.368651354736   122.85767138   184.46209884
 N     33  30  26     1.356016468848   114.75952337     3.89297388
 C     35  32  29     1.338078614838   116.83390789   180.61198438
 H     36  32  29     0.930361966731   120.41166706     0.00000000
 C     36  32  29     1.385992982156   119.17335290   180.09563154
 H     37  33  30     0.930361154914   120.41173879     0.00000000
 C     37  33  30     1.385992777391   119.17328063   180.09570176
 C     38  33  30     1.338078614838   116.83388500   180.61194668
 H     39  35  32     0.930314091111   118.09921251   179.18956248
 C     39  35  32     1.362500622487   123.78617065   359.15566114
 H     41  36  32     0.929516099315   120.59882433   179.29559804
 C     44  38  33     1.362500622487   123.78617065   359.15564838
 H     43  37  33     0.929516151215   120.59885166   179.29563239
 H     44  38  33     0.930314091111   118.09921251   179.18954972
 H     46  39  35     0.930733615134   120.45971591   180.77904232
 H     48  44  38     0.930734298859   120.45964245   180.77906585
 Fe    19   3   1     2.072695249146   115.79884710   356.79400389

---------------------------
INTERNAL COORDINATES (A.U.)
---------------------------
 C      0   0   0     0.000000000000     0.00000000     0.00000000
 C      1   0   0    11.066450598631     0.00000000     0.00000000
 C      1   2   0     2.682659081077    64.87514626     0.00000000
 C      2   1   3     2.682659081077    64.87514626   259.16666604
 C      3   1   2     2.660433124257   117.58604993   172.69588049
 C      4   2   1     2.660434413177   117.58602165   172.69589095
 H      5   3   1     1.756689571625   119.76034813   180.04108492
 H      6   4   2     1.756690072145   119.76026208   180.04110150
 C      5   3   1     2.581707219606   120.53714816     0.00000000
 C      6   4   2     2.581705433669   120.53716662     0.00000000
 H      9   5   3     1.758526582614   119.91087965   178.66717499
 H     10   6   4     1.758526582614   119.91086960   178.66718602
 C      9   5   3     2.610509634614   120.21260488   358.71157160
 C     10   6   4     2.610508171282   120.21261794   358.71162360
 C      1   2   4     2.604422485884   169.41913746    28.83875640
 C      2   1   3     2.604423607678   169.41919007    28.83870764
 N     13   9   5     2.741873350095   119.37917296   181.28272410
 N     14  10   6     2.741875133837   119.37916659   181.28270181
 O      3   1   2     2.455673683955   120.10429703   353.14434166
 O      4   2   1     2.455674252383   120.10432806   353.14430886
 O     17  13   9     2.336531625285   117.26394392   348.86417904
 O     18  14  10     2.336529282091   117.26395196   348.86419380
 O     17  13   9     2.320074981339   118.95549670   169.00256291
 O     18  14  10     2.320076198176   118.95543678   169.00249775
 N      1   2  16     2.647081157151    48.48849588   219.66274004
 N      2   1   3     2.647079093522    48.48850091    89.99074706
 H     15   1  25     1.756721246770   120.81226473   357.86012164
 H     16   2  26     1.756722215849   120.81216374   357.85996627
 C     25   1   2     2.402866097921   126.46447696   190.10491445
 C     26   2   1     2.402866097921   126.46447552   190.10497382
 H     29  25   1     1.756953008987   121.19657371   359.69981048
 C     29  25   1     2.749038463419   117.73131968   179.72234479
 C     30  26   2     2.749040500327   117.73132750   179.72225936
 H     30  26   2     1.756953008987   121.19657371   359.69976482
 N     32  29  25     2.562501263680   114.75955632     3.89292661
 C     32  29  25     2.586376291865   122.85770102   184.46211657
 C     33  30  26     2.586376233272   122.85767138   184.46209884
 N     33  30  26     2.562499759210   114.75952337     3.89297388
 C     35  32  29     2.528602127701   116.83390789   180.61198438
 H     36  32  29     1.758129322538   120.41166706     0.00000000
 C     36  32  29     2.619147159812   119.17335290   180.09563154
 H     37  33  30     1.758127788426   120.41173879     0.00000000
 C     37  33  30     2.619146772861   119.17328063   180.09570176
 C     38  33  30     2.528602127701   116.83388500   180.61194668
 H     39  35  32     1.758038850728   118.09921251   179.18956248
 C     39  35  32     2.574753033798   123.78617065   359.15566114
 H     41  36  32     1.756530864776   120.59882433   179.29559804
 C     44  38  33     2.574753033798   123.78617065   359.15564838
 H     43  37  33     1.756530962852   120.59885166   179.29563239
 H     44  38  33     1.758038850728   118.09921251   179.18954972
 H     46  39  35     1.758831636238   120.45971591   180.77904232
 H     48  44  38     1.758832928291   120.45964245   180.77906585
 Fe    19   3   1     3.916826379966   115.79884710   356.79400389

---------------------
BASIS SET INFORMATION
---------------------
There are 5 groups of distinct atoms

 Group   1 Type C   : 11s6p2d1f contracted to 5s3p2d1f pattern {62111/411/11/1}
 Group   2 Type H   : 5s1p contracted to 3s1p pattern {311/1}
 Group   3 Type N   : 11s6p2d1f contracted to 5s3p2d1f pattern {62111/411/11/1}
 Group   4 Type O   : 11s6p2d1f contracted to 5s3p2d1f pattern {62111/411/11/1}
 Group   5 Type Fe  : 17s11p7d1f contracted to 6s4p4d1f pattern {842111/6311/4111/1}

Atom   0C    basis set group =>   1
Atom   1C    basis set group =>   1
Atom   2C    basis set group =>   1
Atom   3C    basis set group =>   1
Atom   4C    basis set group =>   1
Atom   5C    basis set group =>   1
Atom   6H    basis set group =>   2
Atom   7H    basis set group =>   2
Atom   8C    basis set group =>   1
Atom   9C    basis set group =>   1
Atom  10H    basis set group =>   2
Atom  11H    basis set group =>   2
Atom  12C    basis set group =>   1
Atom  13C    basis set group =>   1
Atom  14C    basis set group =>   1
Atom  15C    basis set group =>   1
Atom  16N    basis set group =>   3
Atom  17N    basis set group =>   3
Atom  18O    basis set group =>   4
Atom  19O    basis set group =>   4
Atom  20O    basis set group =>   4
Atom  21O    basis set group =>   4
Atom  22O    basis set group =>   4
Atom  23O    basis set group =>   4
Atom  24N    basis set group =>   3
Atom  25N    basis set group =>   3
Atom  26H    basis set group =>   2
Atom  27H    basis set group =>   2
Atom  28C    basis set group =>   1
Atom  29C    basis set group =>   1
Atom  30H    basis set group =>   2
Atom  31C    basis set group =>   1
Atom  32C    basis set group =>   1
Atom  33H    basis set group =>   2
Atom  34N    basis set group =>   3
Atom  35C    basis set group =>   1
Atom  36C    basis set group =>   1
Atom  37N    basis set group =>   3
Atom  38C    basis set group =>   1
Atom  39H    basis set group =>   2
Atom  40C    basis set group =>   1
Atom  41H    basis set group =>   2
Atom  42C    basis set group =>   1
Atom  43C    basis set group =>   1
Atom  44H    basis set group =>   2
Atom  45C    basis set group =>   1
Atom  46H    basis set group =>   2
Atom  47C    basis set group =>   1
Atom  48H    basis set group =>   2
Atom  49H    basis set group =>   2
Atom  50H    basis set group =>   2
Atom  51H    basis set group =>   2
Atom  52Fe   basis set group =>   5
---------------------------------
AUXILIARY/J BASIS SET INFORMATION
---------------------------------
There are 5 groups of distinct atoms

 Group   1 Type C   : 12s5p4d2f1g contracted to 6s4p3d1f1g pattern {711111/2111/211/2/1}
 Group   2 Type H   : 5s2p1d contracted to 3s1p1d pattern {311/2/1}
 Group   3 Type N   : 12s5p4d2f1g contracted to 6s4p3d1f1g pattern {711111/2111/211/2/1}
 Group   4 Type O   : 12s5p4d2f1g contracted to 6s4p3d1f1g pattern {711111/2111/211/2/1}
 Group   5 Type Fe  : 19s5p5d3f3g contracted to 8s5p5d2f3g pattern {121111111/11111/11111/21/111}

Atom   0C    basis set group =>   1
Atom   1C    basis set group =>   1
Atom   2C    basis set group =>   1
Atom   3C    basis set group =>   1
Atom   4C    basis set group =>   1
Atom   5C    basis set group =>   1
Atom   6H    basis set group =>   2
Atom   7H    basis set group =>   2
Atom   8C    basis set group =>   1
Atom   9C    basis set group =>   1
Atom  10H    basis set group =>   2
Atom  11H    basis set group =>   2
Atom  12C    basis set group =>   1
Atom  13C    basis set group =>   1
Atom  14C    basis set group =>   1
Atom  15C    basis set group =>   1
Atom  16N    basis set group =>   3
Atom  17N    basis set group =>   3
Atom  18O    basis set group =>   4
Atom  19O    basis set group =>   4
Atom  20O    basis set group =>   4
Atom  21O    basis set group =>   4
Atom  22O    basis set group =>   4
Atom  23O    basis set group =>   4
Atom  24N    basis set group =>   3
Atom  25N    basis set group =>   3
Atom  26H    basis set group =>   2
Atom  27H    basis set group =>   2
Atom  28C    basis set group =>   1
Atom  29C    basis set group =>   1
Atom  30H    basis set group =>   2
Atom  31C    basis set group =>   1
Atom  32C    basis set group =>   1
Atom  33H    basis set group =>   2
Atom  34N    basis set group =>   3
Atom  35C    basis set group =>   1
Atom  36C    basis set group =>   1
Atom  37N    basis set group =>   3
Atom  38C    basis set group =>   1
Atom  39H    basis set group =>   2
Atom  40C    basis set group =>   1
Atom  41H    basis set group =>   2
Atom  42C    basis set group =>   1
Atom  43C    basis set group =>   1
Atom  44H    basis set group =>   2
Atom  45C    basis set group =>   1
Atom  46H    basis set group =>   2
Atom  47C    basis set group =>   1
Atom  48H    basis set group =>   2
Atom  49H    basis set group =>   2
Atom  50H    basis set group =>   2
Atom  51H    basis set group =>   2
Atom  52Fe   basis set group =>   5


           ************************************************************
           *        Program running with 8 parallel MPI-processes     *
           *              working on a common directory               *
           ************************************************************
------------------------------------------------------------------------------
                             ORCA STARTUP CALCULATIONS
                           -- RI-GTO INTEGRALS CHOSEN --
------------------------------------------------------------------------------
------------------------------------------------------------------------------
                   ___                                                        
                  /   \      - P O W E R E D   B Y -                         
                 /     \                                                     
                 |  |  |   _    _      __       _____    __    __             
                 |  |  |  | |  | |    /  \     |  _  \  |  |  /  |          
                  \  \/   | |  | |   /    \    | | | |  |  | /  /          
                 / \  \   | |__| |  /  /\  \   | |_| |  |  |/  /          
                |  |  |   |  __  | /  /__\  \  |    /   |      \           
                |  |  |   | |  | | |   __   |  |    \   |  |\   \          
                \     /   | |  | | |  |  |  |  | |\  \  |  | \   \       
                 \___/    |_|  |_| |__|  |__|  |_| \__\ |__|  \__/        
                                                                              
                      - O R C A' S   B I G   F R I E N D -                    
                                      &                                       
                       - I N T E G R A L  F E E D E R -                       
                                                                              
 v1 FN, 2020, v2 2021, v3 2022-2024                                           
------------------------------------------------------------------------------


----------------------
SHARK INTEGRAL PACKAGE
----------------------

Number of atoms                             ...     53
Number of basis functions                   ...   1257
Number of shells                            ...    475
Maximum angular momentum                    ...      3
Integral batch strategy                     ... SHARK/LIBINT Hybrid
RI-J (if used) integral strategy            ... SPLIT-RIJ (Revised 2003 algorithm where possible)
Printlevel                                  ...      1
Contraction scheme used                     ... SEGMENTED contraction
Prescreening option                         ... SCHWARTZ
   Thresh                                   ... 2.500e-11
   Tcut                                     ... 2.500e-12
   Tpresel                                  ... 2.500e-12 
Coulomb Range Separation                    ... NOT USED
Exchange Range Separation                   ... NOT USED
Multipole approximations                    ... NOT USED
Finite Nucleus Model                        ... NOT USED
CABS basis                                  ... NOT available
Auxiliary Coulomb fitting basis             ... AVAILABLE
   # of basis functions in Aux-J            ...   2029
   # of shells in Aux-J                     ...    643
   Maximum angular momentum in Aux-J        ...      4
Auxiliary J/K fitting basis                 ... NOT available
Auxiliary Correlation fitting basis         ... NOT available
Auxiliary 'external' fitting basis          ... NOT available

Checking pre-screening integrals            ... done (  0.0 sec) Dimension = 475
Check shell pair data                       ... done (  0.0 sec)
Shell pair information
Shell pair cut-off parameter TPreSel        ...   2.5e-12
Total number of shell pairs                 ...    113050
Shell pairs after pre-screening             ...     64599
Total number of primitive shell pairs       ...    364277
Primitive shell pairs kept                  ...    129611
          la=0 lb=0:  15046 shell pairs
          la=1 lb=0:  18482 shell pairs
          la=1 lb=1:   5655 shell pairs
          la=2 lb=0:   9506 shell pairs
          la=2 lb=1:   5980 shell pairs
          la=2 lb=2:   1571 shell pairs
          la=3 lb=0:   4102 shell pairs
          la=3 lb=1:   2656 shell pairs
          la=3 lb=2:   1316 shell pairs
          la=3 lb=3:    285 shell pairs

Calculating one electron integrals          ... done (  0.1 sec)
Calculating RI/J V-Matrix + Cholesky decomp.... done (  0.1 sec)
Calculating Nuclear repulsion               ... done (  0.0 sec) ENN=   4562.926240522062 Eh

Diagonalization of the overlap matrix:
Smallest eigenvalue                        ... 5.815e-06
Time for diagonalization                   ...    0.085 sec
Threshold for overlap eigenvalues          ... 1.000e-07
Number of eigenvalues below threshold      ... 0
Time for construction of square roots      ...    0.064 sec
Total time needed                          ...    0.156 sec

-------------------
DFT GRID GENERATION
-------------------

General Integration Accuracy     IntAcc      ... 4.388
Radial Grid Type                 RadialGrid  ... OptM3 with GC (2021)
Angular Grid (max. ang.)         AngularGrid ... 4 (Lebedev-302)
Angular grid pruning method      GridPruning ... 4 (adaptive)
Weight generation scheme         WeightScheme... mBecke (2022)
Basis function cutoff            BFCut       ... 1.0000e-11
Integration weight cutoff        WCut        ... 1.0000e-14
Partially contracted basis set               ... off
Rotationally invariant grid construction     ... off
Angular grids for H and He will be reduced by one unit
Core-polarized basis detected: some atoms will have their core
                               angular grid increased.

Total number of grid points                  ...   276425
Total number of batches                      ...     4342
Average number of points per batch           ...       63
Average number of grid points per atom       ...     5216

--------------------
COSX GRID GENERATION
--------------------

GRIDX 1
-------
General Integration Accuracy     IntAcc      ... 3.816
Radial Grid Type                 RadialGrid  ... OptM3 with GC (2021)
Angular Grid (max. ang.)         AngularGrid ... 1 (Lebedev-50)
Angular grid pruning method      GridPruning ... 4 (adaptive)
Weight generation scheme         WeightScheme... mBecke (2022)
Basis function cutoff            BFCut       ... 1.0000e-11
Integration weight cutoff        WCut        ... 1.0000e-14
Partially contracted basis set               ... on
Rotationally invariant grid construction     ... off
Angular grids for H and He will be reduced by one unit
Core-polarized basis detected: some atoms will have their core
                               angular grid increased.

Total number of grid points                  ...    38809
Total number of batches                      ...      329
Average number of points per batch           ...      117
Average number of grid points per atom       ...      732
UseSFitting                                  ... on

GRIDX 2
-------
General Integration Accuracy     IntAcc      ... 4.020
Radial Grid Type                 RadialGrid  ... OptM3 with GC (2021)
Angular Grid (max. ang.)         AngularGrid ... 2 (Lebedev-110)
Angular grid pruning method      GridPruning ... 4 (adaptive)
Weight generation scheme         WeightScheme... mBecke (2022)
Basis function cutoff            BFCut       ... 1.0000e-11
Integration weight cutoff        WCut        ... 1.0000e-14
Partially contracted basis set               ... on
Rotationally invariant grid construction     ... off
Angular grids for H and He will be reduced by one unit
Core-polarized basis detected: some atoms will have their core
                               angular grid increased.

Total number of grid points                  ...    79967
Total number of batches                      ...      657
Average number of points per batch           ...      121
Average number of grid points per atom       ...     1509
UseSFitting                                  ... on

GRIDX 3
-------
General Integration Accuracy     IntAcc      ... 4.338
Radial Grid Type                 RadialGrid  ... OptM3 with GC (2021)
Angular Grid (max. ang.)         AngularGrid ... 3 (Lebedev-194)
Angular grid pruning method      GridPruning ... 4 (adaptive)
Weight generation scheme         WeightScheme... mBecke (2022)
Basis function cutoff            BFCut       ... 1.0000e-11
Integration weight cutoff        WCut        ... 1.0000e-14
Partially contracted basis set               ... on
Rotationally invariant grid construction     ... off
Angular grids for H and He will be reduced by one unit
Core-polarized basis detected: some atoms will have their core
                               angular grid increased.

Total number of grid points                  ...   169019
Total number of batches                      ...     1341
Average number of points per batch           ...      126
Average number of grid points per atom       ...     3189
UseSFitting                                  ... on
Initializing property integral containers    ... done (  0.0 sec)

SHARK setup successfully completed in   3.6 seconds

Maximum memory used throughout the entire STARTUP-calculation: 150.2 MB


           ************************************************************
           *        Program running with 8 parallel MPI-processes     *
           *              working on a common directory               *
           ************************************************************
-------------------------------------------------------------------------------
                                 ORCA GUESS
                   Start orbitals & Density for SCF / CASSCF
-------------------------------------------------------------------------------

------------
SCF SETTINGS
------------
Hamiltonian:
 Density Functional     Method          .... DFT(GTOs)
 Exchange Functional    Exchange        .... PBE
   PBE kappa parameter   XKappa         ....  0.804000
   PBE mue parameter    XMuePBE         ....  0.219520
 Correlation Functional Correlation     .... PBE
   PBE beta parameter  CBetaPBE         ....  0.066725
 LDA part of GGA corr.  LDAOpt          .... PW91-LDA
 Gradients option       PostSCFGGA      .... off
 Hybrid DFT is turned on
   Fraction HF Exchange ScalHFX         ....  0.250000
   Scaling of DF-GGA-X  ScalDFX         ....  0.750000
   Scaling of DF-GGA-C  ScalDFC         ....  1.000000
   Scaling of DF-LDA-C  ScalLDAC        ....  1.000000
   Perturbative correction              ....  0.000000
   NL short-range parameter             ....  6.900000
 RI-approximation to the Coulomb term is turned on
   Number of AuxJ basis functions       .... 2029
   RIJ-COSX (HFX calculated with COS-X)).... on


General Settings:
 Integral files         IntName         .... input
 Hartree-Fock type      HFTyp           .... UHF
 Total Charge           Charge          ....    0
 Multiplicity           Mult            ....    5
 Number of Electrons    NEL             ....  276
 Basis Dimension        Dim             .... 1257
 Nuclear Repulsion      ENuc            ....   4562.9262405221 Eh

Convergence Acceleration:
 AO-DIIS                CNVDIIS         .... on
   Start iteration      DIISMaxIt       ....    12
   Startup error        DIISStart       ....  0.200000
   # of expansion vecs  DIISMaxEq       ....     5
   Bias factor          DIISBfac        ....   1.050
   Max. coefficient     DIISMaxC        ....  10.000
 MO-DIIS                CNVKDIIS        .... off
 Trust-Rad. Augm. Hess. CNVTRAH         .... auto
   Auto Start mean grad. ratio tolernc. ....  1.125000
   Auto Start start iteration           ....    50
   Auto Start num. interpolation iter.  ....    10
   Max. Number of Micro iterations      ....    24
   Max. Number of Macro iterations      .... Maxiter - #DIIS iter
   Number of Davidson start vectors     ....     2
   Converg. threshold    (grad. norm)   ....   1.000e-05
   Grad. Scal. Fac. for Micro threshold ....   0.100
   Minimum threshold for Micro iter.    ....   1.000e-02
   NR start threshold (gradient norm)   ....   1.000e-04
   Initial trust radius                 ....   0.400
   Minimum AH scaling param. (alpha)    ....   1.000
   Maximum AH scaling param. (alpha)    .... 1000.000
   Quad. conv. algorithm                .... NR
   White noise on init. David. guess    .... on
   Maximum white noise                  ....   0.010
   Pseudo random numbers                .... off
   Inactive MOs                         .... canonical
   Orbital update algorithm             .... Taylor
   Preconditioner                       .... Diag
   Full preconditioner red. dimension   ....   250
 SOSCF                  CNVSOSCF        .... on
   Start iteration      SOSCFMaxIt      ....   150
   Startup grad/error   SOSCFStart      ....  0.003300
   Hessian update       SOSCFHessUp     .... L-BFGS
 Level Shifting         CNVShift        .... on
   Level shift para.    LevelShift      ....    0.2500
   Turn off err/grad.   ShiftErr        ....    0.0010
 Zerner damping         CNVZerner       .... off
 Static damping         CNVDamp         .... on
   Fraction old density DampFac         ....    0.7000
   Max. Damping (<1)    DampMax         ....    0.9800
   Min. Damping (>=0)   DampMin         ....    0.0000
   Turn off err/grad.   DampErr         ....    0.1000

SCF Procedure:
 Maximum # iterations   MaxIter         ....  1000
 SCF integral mode      SCFMode         .... Direct
   Integral package                     .... SHARK and LIBINT hybrid scheme
 Reset frequency        DirectResetFreq ....    20
 Integral Threshold     Thresh          ....  2.500e-11 Eh
 Primitive CutOff       TCut            ....  2.500e-12 Eh

Convergence Tolerance:
 Convergence Check Mode ConvCheckMode   .... Total+1el-Energy
 Convergence forced     ConvForced      .... 0
 Energy Change          TolE            ....  1.000e-08 Eh
 1-El. energy change                    ....  1.000e-05 Eh
 Orbital Gradient       TolG            ....  1.000e-05
 Orbital Rotation angle TolX            ....  1.000e-05
 DIIS Error             TolErr          ....  5.000e-07

------------------------------
INITIAL GUESS: MODEL POTENTIAL
------------------------------
Loading Hartree-Fock densities                     ... done
Calculating cut-offs                               ... done
Initializing the effective Hamiltonian             ... done
Setting up the integral package (SHARK)            ... done
Starting the Coulomb interaction                   ... done (   0.6 sec)
Making the grid                                    ... done (   0.3 sec)
Mapping shells                                     ... done
Starting the XC term evaluation                    ... done (   0.3 sec)
  promolecular density results
     # of electrons  =    275.968958463
     EX              =   -270.415587446
     EC              =     -9.733413407
     EX+EC           =   -280.149000853
Transforming the Hamiltonian                       ... done (   0.1 sec)
Diagonalizing the Hamiltonian                      ... done (   0.1 sec)
Back transforming the eigenvectors                 ... done (   0.1 sec)
Now organizing SCF variables                       ... done
                      ------------------
                      INITIAL GUESS DONE (   1.5 sec)
                      ------------------
             **** ENERGY FILE WAS UPDATED (input.en.tmp) ****
Finished Guess after   1.8 sec
Maximum memory used throughout the entire GUESS-calculation: 134.9 MB


           ************************************************************
           *        Program running with 8 parallel MPI-processes     *
           *              working on a common directory               *
           ************************************************************

-------------------------------------------------------------------------------------------
                                      ORCA LEAN-SCF
                              memory conserving SCF solver
-------------------------------------------------------------------------------------------

----------------------------------------D-I-I-S--------------------------------------------
Iteration    Energy (Eh)           Delta-E    RMSDP     MaxDP     DIISErr   Damp  Time(sec)
-------------------------------------------------------------------------------------------
               ***  Starting incremental Fock matrix formation  ***
    1    -2963.8453113028263033     0.00e+00  1.55e-03  4.12e-01  4.09e-01  0.700  19.7
Warning: op=0 Small HOMO/LUMO gap (  -0.570) - skipping pre-diagonalization
         LevelShift set to 0.670 Eh
         Will do a full diagonalization
    2    -2964.5288558469410418    -6.84e-01  8.49e-04  1.15e-01  2.01e-01  0.700  11.3
                               ***Turning on AO-DIIS***
    3    -2964.7253868406432957    -1.97e-01  6.52e-04  9.95e-02  1.35e-01  0.700  10.8
    4    -2964.9697837974299546    -2.44e-01  4.01e-04  7.06e-02  9.52e-02  0.700  10.4
    5    -2965.1864545573189389    -2.17e-01  7.45e-04  1.49e-01  4.98e-02  0.000  10.4
    6    -2965.6180804749237723    -4.32e-01  3.59e-04  4.38e-02  1.01e-01  0.000  10.6
    7    -2965.6619595760284938    -4.39e-02  7.75e-05  7.66e-03  8.57e-02  0.700  10.1
    8    -2965.6727406146555950    -1.08e-02  3.61e-04  3.36e-02  8.18e-02  0.000   8.7
    9    -2965.7288004536239896    -5.61e-02  1.79e-04  1.49e-02  6.03e-02  0.000  10.3
   10    -2965.7650132858616416    -3.62e-02  2.12e-04  2.02e-02  3.76e-02  0.000   9.9
   11    -2965.7975166410797101    -3.25e-02  1.06e-04  1.03e-02  9.72e-03  0.000  10.1
   12    -2965.8135577832717900    -1.60e-02  9.64e-05  9.49e-03  6.70e-03  0.000   9.7
   13    -2965.8263297355506438    -1.28e-02  9.03e-05  9.74e-03  7.57e-03  0.000   9.5
   14    -2965.8375932127792112    -1.13e-02  7.47e-05  7.67e-03  4.63e-03  0.000   9.3
   15    -2965.8458885498766904    -8.30e-03  6.37e-05  7.41e-03  6.11e-03  0.000   9.6
                              *** Initializing SOSCF ***
---------------------------------------S-O-S-C-F--------------------------------------
Iteration    Energy (Eh)           Delta-E    RMSDP     MaxDP     MaxGrad    Time(sec)
--------------------------------------------------------------------------------------
   16    -2965.8521090834465213    -6.22e-03  4.94e-05  3.94e-03  3.20e-03     9.9
               *** Restarting incremental Fock matrix formation ***
               *** Scaled step length from 0.236541 to 0.200000 ***
   17    -2965.8562442706488582    -4.14e-03  1.64e-04  1.28e-02  2.37e-02    20.2
               *** Scaled step length from 0.402537 to 0.200000 ***
   18    -2965.8642095393770433    -7.97e-03  1.77e-04  1.86e-02  1.23e-02    16.3
   19    -2965.8662323889766412    -2.02e-03  8.44e-05  8.26e-03  8.75e-03    16.1
   20    -2965.8677246817096602    -1.49e-03  2.93e-05  3.12e-03  2.09e-03    15.3
   21    -2965.8677584727747671    -3.38e-05  2.28e-05  3.54e-03  2.40e-03    14.2
   22    -2965.8680171026826429    -2.59e-04  1.59e-05  2.59e-03  6.05e-04    13.9
   23    -2965.8680350450122205    -1.79e-05  1.37e-05  2.10e-03  7.26e-04    13.7
   24    -2965.8680873205967146    -5.23e-05  1.10e-05  2.11e-03  4.09e-04    13.0
   25    -2965.8680848065405371     2.51e-06  5.28e-06  5.42e-04  5.86e-04    12.9
   26    -2965.8681032881913779    -1.85e-05  4.19e-06  6.77e-04  2.44e-04    11.2
   27    -2965.8681042635371341    -9.75e-07  2.94e-06  6.82e-04  2.00e-04    11.3
   28    -2965.8681081350332533    -3.87e-06  4.19e-06  1.42e-03  1.88e-04    10.3
   29    -2965.8681108345626853    -2.70e-06  5.26e-06  1.81e-03  1.39e-04    11.2
   30    -2965.8681137992361982    -2.96e-06  5.35e-06  1.68e-03  1.02e-04    11.7
   31    -2965.8681158625968237    -2.06e-06  3.72e-06  8.90e-04  9.64e-05    11.8
   32    -2965.8681169267929363    -1.06e-06  1.69e-06  3.11e-04  7.78e-05    11.2
   33    -2965.8681175016472480    -5.75e-07  1.77e-06  3.53e-04  4.97e-05    10.1
   34    -2965.8681177742973887    -2.73e-07  1.08e-06  2.22e-04  2.59e-05    10.4
   35    -2965.8681177974840466    -2.32e-08  7.24e-07  9.06e-05  2.33e-05     9.5
   36    -2965.8681179018740295    -1.04e-07  1.06e-06  1.32e-04  7.06e-06     8.8
               *** Restarting incremental Fock matrix formation ***
   37    -2965.8681179623054049    -6.04e-08  1.92e-06  2.80e-04  5.64e-06    20.7
   38    -2965.8681179488312409     1.35e-08  1.64e-06  2.15e-04  2.17e-06     8.8
                  *** Gradient check signals convergence ***

               *****************************************************
               *                     SUCCESS                       *
[...]
137:   1660.35   0.095421  482.22  0.017934  ( 0.113547 -0.000300  0.071003)
138:   1661.53   0.042747  216.03  0.008029  (-0.000344 -0.089602 -0.000206)
139:   1666.80   0.036520  184.56  0.006837  (-0.081281  0.000098 -0.015192)
140:   1668.21   0.013658   69.02  0.002555  ( 0.000218  0.050546  0.000064)
141:   1682.03   0.001199    6.06  0.000222  ( 0.000199  0.014913 -0.000012)
142:   1682.52   0.006074   30.70  0.001127  (-0.032712  0.000076  0.007520)
143:   3130.07   0.005601   28.31  0.000558  ( 0.023299 -0.001778 -0.003524)
144:   3130.11   0.001138    5.75  0.000113  ( 0.009629  0.004308 -0.001458)
145:   3197.56   0.000830    4.19  0.000081  (-0.003859 -0.008003 -0.001424)
146:   3197.64   0.001580    7.98  0.000154  ( 0.011363 -0.002721  0.004203)
147:   3204.33   0.000247    1.25  0.000024  ( 0.003510  0.001837  0.002895)
148:   3204.37   0.000192    0.97  0.000019  (-0.001704  0.003722 -0.001401)
149:   3217.19   0.000385    1.95  0.000037  ( 0.001723 -0.005176 -0.002752)
150:   3217.21   0.000968    4.89  0.000094  ( 0.005035  0.001758 -0.008091)
151:   3217.46   0.000373    1.89  0.000036  (-0.003788 -0.000403 -0.004659)
152:   3217.47   0.000572    2.89  0.000055  ( 0.000195 -0.007441  0.000249)
153:   3226.08   0.000394    1.99  0.000038  (-0.003332 -0.003364  0.003958)
154:   3226.11   0.000421    2.13  0.000041  (-0.003582  0.003130  0.004254)
155:   3231.03   0.000423    2.14  0.000041  ( 0.004331 -0.002985  0.003628)
156:   3231.07   0.000347    1.75  0.000033  (-0.003208 -0.004006 -0.002674)
157:   3236.91   0.000408    2.06  0.000039  (-0.006167  0.000166  0.001138)
158:   3236.92   0.000362    1.83  0.000035  (-0.005811 -0.000178  0.001068)

* The epsilon (eps) is given for a Dirac delta lineshape.
** The dipole moment derivative (T) already includes vibrational overlap.

The first frequency considered to be a vibration is 6
The total number of vibrations considered is 153


--------------------------
THERMOCHEMISTRY AT 298.15K
--------------------------

Temperature         ...   298.15 K
Pressure            ...     1.00 atm
Total Mass          ...   540.28 AMU
Quasi RRHO          ...     True
Cut-Off Frequency   ...     1.00 cm^-1

Throughout the following assumptions are being made:
  (1) The electronic state is orbitally nondegenerate
      but the spin degeneracy is treated
  (2) There are no thermally accessible electronically excited states
  (3) Hindered rotations indicated by low frequency modes are not
      treated as such but are treated as vibrations and this may
      cause some error
  (4) All equations used are the standard statistical mechanics
      equations for an ideal gas
  (5) All vibrations are strictly harmonic

freq.      14.64  E(vib)   ...       0.57 
freq.      17.70  E(vib)   ...       0.57 
freq.      27.73  E(vib)   ...       0.55 
freq.      42.28  E(vib)   ...       0.53 
freq.      44.72  E(vib)   ...       0.53 
freq.      56.16  E(vib)   ...       0.52 
freq.      57.48  E(vib)   ...       0.51 
freq.      67.31  E(vib)   ...       0.50 
freq.      71.54  E(vib)   ...       0.50 
freq.      78.60  E(vib)   ...       0.49 
freq.      89.71  E(vib)   ...       0.47 
freq.     101.00  E(vib)   ...       0.46 
freq.     101.85  E(vib)   ...       0.46 
freq.     125.70  E(vib)   ...       0.43 
freq.     132.03  E(vib)   ...       0.42 
freq.     144.44  E(vib)   ...       0.41 
freq.     150.08  E(vib)   ...       0.40 
freq.     158.61  E(vib)   ...       0.39 
freq.     170.84  E(vib)   ...       0.38 
freq.     180.13  E(vib)   ...       0.37 
freq.     204.77  E(vib)   ...       0.35 
freq.     241.39  E(vib)   ...       0.31 
freq.     248.51  E(vib)   ...       0.31 
freq.     263.01  E(vib)   ...       0.29 
freq.     267.53  E(vib)   ...       0.29 
freq.     267.97  E(vib)   ...       0.29 
freq.     272.91  E(vib)   ...       0.29 
freq.     294.57  E(vib)   ...       0.27 
freq.     294.91  E(vib)   ...       0.27 
freq.     313.74  E(vib)   ...       0.25 
freq.     332.49  E(vib)   ...       0.24 
freq.     363.57  E(vib)   ...       0.22 
freq.     368.24  E(vib)   ...       0.21 
freq.     384.34  E(vib)   ...       0.20 
freq.     387.50  E(vib)   ...       0.20 
freq.     424.78  E(vib)   ...       0.18 
freq.     432.45  E(vib)   ...       0.18 
freq.     469.95  E(vib)   ...       0.16 
freq.     472.22  E(vib)   ...       0.15 
freq.     495.17  E(vib)   ...       0.14 
freq.     503.76  E(vib)   ...       0.14 
freq.     518.15  E(vib)   ...       0.13 
freq.     520.46  E(vib)   ...       0.13 
freq.     520.50  E(vib)   ...       0.13 
freq.     522.77  E(vib)   ...       0.13 
freq.     563.75  E(vib)   ...       0.11 
freq.     564.14  E(vib)   ...       0.11 
freq.     567.79  E(vib)   ...       0.11 
freq.     568.59  E(vib)   ...       0.11 
freq.     624.56  E(vib)   ...       0.09 
freq.     631.82  E(vib)   ...       0.09 
freq.     645.17  E(vib)   ...       0.09 
freq.     646.65  E(vib)   ...       0.09 
freq.     658.93  E(vib)   ...       0.08 
freq.     659.01  E(vib)   ...       0.08 
freq.     693.19  E(vib)   ...       0.07 
freq.     694.91  E(vib)   ...       0.07 
freq.     759.02  E(vib)   ...       0.06 
freq.     759.34  E(vib)   ...       0.06 
freq.     766.17  E(vib)   ...       0.06 
freq.     768.05  E(vib)   ...       0.06 
freq.     788.92  E(vib)   ...       0.05 
freq.     789.10  E(vib)   ...       0.05 
freq.     799.86  E(vib)   ...       0.05 
freq.     800.60  E(vib)   ...       0.05 
freq.     837.92  E(vib)   ...       0.04 
freq.     839.74  E(vib)   ...       0.04 
freq.     856.09  E(vib)   ...       0.04 
freq.     856.44  E(vib)   ...       0.04 
freq.     867.24  E(vib)   ...       0.04 
freq.     867.53  E(vib)   ...       0.04 
freq.     904.85  E(vib)   ...       0.03 
freq.     905.13  E(vib)   ...       0.03 
freq.     911.98  E(vib)   ...       0.03 
freq.     915.31  E(vib)   ...       0.03 
freq.     930.43  E(vib)   ...       0.03 
freq.     930.44  E(vib)   ...       0.03 
freq.     952.01  E(vib)   ...       0.03 
freq.     952.34  E(vib)   ...       0.03 
freq.     984.29  E(vib)   ...       0.02 
freq.     987.28  E(vib)   ...       0.02 
freq.     994.14  E(vib)   ...       0.02 
freq.     994.66  E(vib)   ...       0.02 
freq.    1000.56  E(vib)   ...       0.02 
freq.    1000.58  E(vib)   ...       0.02 
freq.    1016.04  E(vib)   ...       0.02 
freq.    1016.09  E(vib)   ...       0.02 
freq.    1028.87  E(vib)   ...       0.02 
freq.    1031.87  E(vib)   ...       0.02 
freq.    1083.04  E(vib)   ...       0.02 
freq.    1083.27  E(vib)   ...       0.02 
freq.    1110.15  E(vib)   ...       0.02 
freq.    1112.13  E(vib)   ...       0.01 
freq.    1136.12  E(vib)   ...       0.01 
freq.    1136.46  E(vib)   ...       0.01 
freq.    1148.82  E(vib)   ...       0.01 
freq.    1149.43  E(vib)   ...       0.01 
freq.    1176.19  E(vib)   ...       0.01 
freq.    1176.87  E(vib)   ...       0.01 
freq.    1202.33  E(vib)   ...       0.01 
freq.    1205.35  E(vib)   ...       0.01 
freq.    1253.18  E(vib)   ...       0.01 
freq.    1255.40  E(vib)   ...       0.01 
freq.    1270.75  E(vib)   ...       0.01 
freq.    1275.67  E(vib)   ...       0.01 
freq.    1331.19  E(vib)   ...       0.01 
freq.    1335.09  E(vib)   ...       0.01 
freq.    1338.12  E(vib)   ...       0.01 
freq.    1338.29  E(vib)   ...       0.01 
freq.    1359.74  E(vib)   ...       0.01 
freq.    1362.63  E(vib)   ...       0.01 
freq.    1396.03  E(vib)   ...       0.00 
freq.    1404.45  E(vib)   ...       0.00 
freq.    1404.62  E(vib)   ...       0.00 
freq.    1407.61  E(vib)   ...       0.00 
freq.    1416.51  E(vib)   ...       0.00 
freq.    1417.04  E(vib)   ...       0.00 
freq.    1481.21  E(vib)   ...       0.00 
freq.    1481.70  E(vib)   ...       0.00 
freq.    1493.27  E(vib)   ...       0.00 
freq.    1493.34  E(vib)   ...       0.00 
freq.    1511.46  E(vib)   ...       0.00 
freq.    1514.95  E(vib)   ...       0.00 
freq.    1538.09  E(vib)   ...       0.00 
freq.    1550.29  E(vib)   ...       0.00 
freq.    1584.59  E(vib)   ...       0.00 
freq.    1585.57  E(vib)   ...       0.00 
freq.    1619.53  E(vib)   ...       0.00 
freq.    1621.11  E(vib)   ...       0.00 
freq.    1646.40  E(vib)   ...       0.00 
freq.    1648.01  E(vib)   ...       0.00 
freq.    1660.35  E(vib)   ...       0.00 
freq.    1661.53  E(vib)   ...       0.00 
freq.    1666.80  E(vib)   ...       0.00 
freq.    1668.21  E(vib)   ...       0.00 
freq.    1682.03  E(vib)   ...       0.00 
freq.    1682.52  E(vib)   ...       0.00 
freq.    3130.07  E(vib)   ...       0.00 
freq.    3130.11  E(vib)   ...       0.00 
freq.    3197.56  E(vib)   ...       0.00 
freq.    3197.64  E(vib)   ...       0.00 
freq.    3204.33  E(vib)   ...       0.00 
freq.    3204.37  E(vib)   ...       0.00 
freq.    3217.19  E(vib)   ...       0.00 
freq.    3217.21  E(vib)   ...       0.00 
freq.    3217.46  E(vib)   ...       0.00 
freq.    3217.47  E(vib)   ...       0.00 
freq.    3226.08  E(vib)   ...       0.00 
freq.    3226.11  E(vib)   ...       0.00 
freq.    3231.03  E(vib)   ...       0.00 
freq.    3231.07  E(vib)   ...       0.00 
freq.    3236.91  E(vib)   ...       0.00 
freq.    3236.92  E(vib)   ...       0.00 

------------
INNER ENERGY
------------

The inner energy is: U= E(el) + E(ZPE) + E(vib) + E(rot) + E(trans)
    E(el)   - is the total energy from the electronic structure calculation
              = E(kin-el) + E(nuc-el) + E(el-el) + E(nuc-nuc)
    E(ZPE)  - the the zero temperature vibrational energy from the frequency calculation
    E(vib)  - the the finite temperature correction to E(ZPE) due to population
              of excited vibrational states
    E(rot)  - is the rotational thermal energy
    E(trans)- is the translational thermal energy

Summary of contributions to the inner energy U:
Electronic energy                ...  -2966.29184513 Eh
Zero point energy                ...      0.37805866 Eh     237.23 kcal/mol
Thermal vibrational correction   ...      0.02788269 Eh      17.50 kcal/mol
Thermal rotational correction    ...      0.00141627 Eh       0.89 kcal/mol
Thermal translational correction ...      0.00141627 Eh       0.89 kcal/mol
-----------------------------------------------------------------------
Total thermal energy                  -2965.88307124 Eh


Summary of corrections to the electronic energy:
(perhaps to be used in another calculation)
Total thermal correction                  0.03071523 Eh      19.27 kcal/mol
Non-thermal (ZPE) correction              0.37805866 Eh     237.23 kcal/mol
-----------------------------------------------------------------------
Total correction                          0.40877389 Eh     256.51 kcal/mol


--------
ENTHALPY
--------

The enthalpy is H = U + kB*T
                kB is Boltzmann's constant
Total thermal energy              ...  -2965.88307124 Eh 
Thermal Enthalpy correction       ...      0.00094421 Eh       0.59 kcal/mol
-----------------------------------------------------------------------
Total Enthalpy                    ...  -2965.88212703 Eh


Note: Only C1 symmetry has been detected, increase convergence thresholds 
      if your molecule has a higher symmetry. Symmetry factor of 1.0 is   
      used for the rotational entropy correction. 
 

Note: Rotational entropy computed according to Herzberg 
Infrared and Raman Spectra, Chapter V,1, Van Nostrand Reinhold, 1945 
Point Group:  C1, Symmetry Number:   1  
Rotational constants in cm-1:     0.005597     0.001935     0.001891 

Vibrational entropy computed according to the QRRHO of S. Grimme
Chem.Eur.J. 2012 18 9955 using a reference frequency of 100.0 cm-1


-------
ENTROPY
-------

The entropy contributions are T*S = T*(S(el)+S(vib)+S(rot)+S(trans))
     S(el)   - electronic entropy
     S(vib)  - vibrational entropy
     S(rot)  - rotational entropy
     S(trans)- translational entropy
The entropies will be listed as multiplied by the temperature to get
units of energy

Electronic entropy                ...      0.00151960 Eh      0.95 kcal/mol
Vibrational entropy               ...      0.05020059 Eh     31.50 kcal/mol
Rotational entropy                ...      0.01786863 Eh     11.21 kcal/mol
Translational entropy             ...      0.02126037 Eh     13.34 kcal/mol
-----------------------------------------------------------------------
Final entropy term                ...      0.09084919 Eh     57.01 kcal/mol

In case the symmetry of your molecule has not been determined correctly
or in case you have a reason to use a different symmetry number we print 
out the resulting rotational entropy values for sn=1,12:

 non-linear molecules -----------------------------------
|  sn= 1 | S(rot)=       0.01786863 Eh     11.21 kcal/mol|
|  sn= 2 | S(rot)=       0.01721417 Eh     10.80 kcal/mol|
|  sn= 3 | S(rot)=       0.01683134 Eh     10.56 kcal/mol|
|  sn= 4 | S(rot)=       0.01655972 Eh     10.39 kcal/mol|
|  sn= 5 | S(rot)=       0.01634903 Eh     10.26 kcal/mol|
|  sn= 6 | S(rot)=       0.01617688 Eh     10.15 kcal/mol|
|  sn= 7 | S(rot)=       0.01603134 Eh     10.06 kcal/mol|
|  sn= 8 | S(rot)=       0.01590526 Eh      9.98 kcal/mol|
|  sn= 9 | S(rot)=       0.01579405 Eh      9.91 kcal/mol|
|  sn=10 | S(rot)=       0.01569457 Eh      9.85 kcal/mol|
|  sn=11 | S(rot)=       0.01560458 Eh      9.79 kcal/mol|
|  sn=12 | S(rot)=       0.01552243 Eh      9.74 kcal/mol|
 linear molecules ---------------------------------------
|  Dinfh | S(rot)=       0.01124625 Eh      7.06 kcal/mol|
|  Cinfv | S(rot)=       0.01190071 Eh      7.47 kcal/mol|
 --------------------------------------------------------


-------------------
GIBBS FREE ENERGY
-------------------

The Gibbs free energy is G = H - T*S

Total enthalpy                    ...  -2965.88212703 Eh 
Total entropy correction          ...     -0.09084919 Eh    -57.01 kcal/mol
-----------------------------------------------------------------------
Final Gibbs free energy         ...  -2965.97297621 Eh

For completeness - the Gibbs free energy minus the electronic energy
G-E(el)                           ...      0.31886891 Eh    200.09 kcal/mol


Maximum memory used throughout the entire PROP-calculation: 671.6 MB

--------------------------------
SUGGESTED CITATIONS FOR THIS RUN
--------------------------------

Below you find a list of papers that are relevant to this ORCA run
We neither can nor want to force you to cite these papers, but we appreciate if you do
You receive ORCA, which is the product of decades of hard work by many enthusiastic individuals, for free
The only thing we kindly ask in return is that you cite our papers,
We deeply appreciate it, if you show your appreciation for ORCA by not just citing the generic ORCA reference.

Please note that relegating all ORCA citations to the supporting information does *not* help us.
SI sections are not indexed - citations you put there will not count into any citation statistics
But we need these citations in order to attract the funding resources that allow us to do what we are doing

Therefore, if you are a happy ORCA user, please consider citing a few of the papers listed below in the main body of your paper

In addition to the list printed below, the program has created the file input.bibtex that contains the list in bibtex format
You can import this file easily into all common literature databanks and citation aid programs


List of essential papers. We consider these as the minimum necessary citations

  1. Neese,F.
     Software update: the ORCA program system, version 5.0
     WIRES Comput. Molec. Sci., 2022 12(1)e1606
     doi.org/10.1002/wcms.1606

List of papers to cite with high priority. The work reported in these papers was absolutely
necessary for this run to complete.
Our perspective: the developers of density functionals and basis sets usually get cited in chemistry papers
Good! But without the algorithms to do something with them, the functionals or basis sets would not do anything.
Hence, in our opinion, the algorithm design and method developments papers are equally worthy of getting cited

  1. Neese,F.
     An improvement of the resolution of the identity approximation for the formation of the Coulomb matrix
     J. Comp. Chem., 2003 24(14)1740-1747
     doi.org/10.1002/jcc.10318
  2. Neese,F.; Wennmohs,F.; Hansen,A.; Becker,U.
     Efficient, approximate and parallel Hartree-Fock and hybrid DFT calculations. A 'chain-of-spheres' algorithm for the Hartree-Fock exchange
     Chem. Phys., 2009 356(1-3)98-109
     doi.org/10.1016/j.chemphys.2008.10.036
  3. Bykov,D.; Petrenko,T.; Izsak,R.; Kossmann,S.; Becker,U.; Valeev,E.; Neese,F.
     Efficient implementation of the analytic second derivatives of Hartree-Fock and hybrid DFT energies: a detailed analysis of different approximations
     Molec. Phys., 2015 113 1961-1977
     doi.org/10.1080/00268976.2015.1025114
  4. Helmich-Paris,B.; de Souza,B.; Neese,F.; Izsák,R.
     An improved chain of spheres for exchange algorithm
     J. Chem. Phys., 2021 155 104109
     doi.org/doi: 10.1063/5.0058766.
  5. Neese,F.
     The SHARK Integral Generation and Digestion System
     J. Comp. Chem., 2022  1-16
     doi.org/10.1002/jcc.26942
  6. Grimme,S.; Antony,J.; Ehrlich,S.; Krieg,H.
     A consistent and accurate ab initio parametrization of density functional dispersion correction (DFT-D) for the 94 elements H-Pu
     J. Chem. Phys., 2010 132 154104
     doi.org/10.1063/1.3382344
  7. Grimme,S.; Ehrlich,S.; Goerigk,L.
     Effect of the damping function in dispersion corrected density functional theory
     J. Comput. Chem., 2011 32(7)1456-1465
     doi.org/10.1002/jcc.21759

List of suggested additional citations. These are papers that are important in the 'surrounding' of 
of this run, or papers that preceded the highly important papers. If you like your results we are grateful for a citation.

  1. Izsak,R.; Neese,F.
     An overlap fitted chain of spheres exchange method
     J. Chem. Phys., 2011 135 144105
     doi.org/10.1063/1.3646921
  2. Izsak,R.; Hansen,A.; Neese,F.
     The resolution of identity and chain of spheres approximations for the LPNO-CCSD singles Fock term
     Molec. Phys., 2012 110 2413-2417
     doi.org/10.1080/00268976.2012.687466
  3. Neese,F.
     The ORCA program system
     WIRES Comput. Molec. Sci., 2012 2(1)73-78
     doi.org/10.1002/wcms.81
  4. Izsak,R.; Neese,F.; Klopper,W.
     Robust fitting techniques in the chain of spheres approximation to the Fock exchange: The role of the complementary space
     J. Chem. Phys., 2013 139 
     doi.org/10.1063/1.4819264
  5. Neese,F.
     Software update: the ORCA program system, version 4.0
     WIRES Comput. Molec. Sci., 2018 8(1)1-6
     doi.org/10.1002/wcms.1327
  6. Neese,F.; Wennmohs,F.; Becker,U.; Riplinger,C.
     The ORCA quantum chemistry program package
     J. Chem. Phys., 2020 152 Art. No. L224108
     doi.org/10.1063/5.0004608

List of optional additional citations

  1. Neese,F.
     Approximate second-order SCF convergence for spin unrestricted wavefunctions
     Chem. Phys. Lett., 2000 325(1-3)93-98
     doi.org/10.1016/s0009-2614(00)00662-x

Timings for individual modules:

Sum of individual times          ...    25840.395 sec (= 430.673 min)
Startup calculation              ...       82.494 sec (=   1.375 min)   0.3 %
SCF iterations                   ...     4450.351 sec (=  74.173 min)  17.2 %
Property integrals               ...     2851.233 sec (=  47.521 min)  11.0 %
SCF Response                     ...    15708.947 sec (= 261.816 min)  60.8 %
Property calculations            ...     1447.304 sec (=  24.122 min)   5.6 %
SCF Gradient evaluation          ...     1299.596 sec (=  21.660 min)   5.0 %
Geometry relaxation              ...        0.469 sec (=   0.008 min)   0.0 %
                             ****ORCA TERMINATED NORMALLY****
TOTAL RUN TIME: 0 days 7 hours 10 minutes 44 seconds 443 msec
